ITEM: TIMESTEP
1
ITEM: NUMBER OF ENTRIES
75405
ITEM: ENTRIES index c_1[1] c_1[2] c_1[3] c_2[1] c_2[2] 
0 1 0 1 1.0 1.0 
1 1 0 282 1.0 1.0 
2 1 0 365 1.0 1.0 
3 1 0 362 1.0 1.0 
4 1 0 471 1.0 1.0 
5 1 0 333 1.0 1.0 
6 1 0 452 1.0 1.0 
7 1 0 482 1.0 1.0 
8 1 0 238 1.0 1.0 
9 1 0 163 1.0 1.0 
10 1 0 94 1.0 1.0 
11 1 0 376 1.0 1.0 
12 1 0 297 1.0 1.0 
13 1 0 380 1.0 1.0 
14 1 0 82 1.0 1.0 
15 1 0 85 1.0 1.0 
16 1 0 197 1.0 1.0 
17 1 0 367 1.0 1.0 
18 1 0 463 1.0 1.0 
19 1 0 284 1.0 1.0 
20 1 0 481 1.0 1.0 
21 1 0 340 1.0 1.0 
22 1 0 312 1.0 1.0 
23 1 0 341 1.0 1.0 
24 1 0 476 1.0 1.0 
25 1 0 92 1.0 1.0 
26 1 0 37 1.0 1.0 
27 1 0 56 1.0 1.0 
28 1 0 160 1.0 1.0 
29 1 0 343 1.0 1.0 
30 1 0 215 1.0 1.0 
31 1 0 266 1.0 1.0 
32 1 0 339 1.0 1.0 
33 1 0 332 1.0 1.0 
34 1 0 405 1.0 1.0 
35 1 0 348 1.0 1.0 
36 1 0 423 1.0 1.0 
37 1 0 277 1.0 1.0 
38 1 0 360 1.0 1.0 
39 1 0 408 1.0 1.0 
40 1 0 294 1.0 1.0 
41 1 0 102 1.0 1.0 
42 1 0 88 1.0 1.0 
43 1 0 281 1.0 1.0 
44 1 0 299 1.0 1.0 
45 1 0 371 1.0 1.0 
46 1 0 300 1.0 1.0 
47 1 0 89 1.0 1.0 
48 1 0 422 1.0 1.0 
49 1 0 336 1.0 1.0 
50 1 0 378 1.0 1.0 
51 1 0 285 1.0 1.0 
52 1 0 93 1.0 1.0 
53 1 0 184 1.0 1.0 
54 1 0 330 1.0 1.0 
55 1 0 335 1.0 1.0 
56 1 0 310 1.0 1.0 
57 1 0 483 1.0 1.0 
58 1 0 295 1.0 1.0 
59 1 0 84 1.0 1.0 
60 1 0 110 1.0 1.0 
61 1 0 443 1.0 1.0 
62 1 0 464 1.0 1.0 
63 1 0 344 1.0 1.0 
64 1 0 349 1.0 1.0 
65 1 0 334 1.0 1.0 
66 1 0 91 1.0 1.0 
67 1 0 308 1.0 1.0 
68 1 0 346 1.0 1.0 
69 1 0 288 1.0 1.0 
70 1 0 159 1.0 1.0 
71 1 0 345 1.0 1.0 
72 1 0 70 1.0 1.0 
73 1 0 162 1.0 1.0 
74 1 0 406 1.0 1.0 
75 1 0 391 1.0 1.0 
76 1 0 190 1.0 1.0 
77 1 0 499 1.0 1.0 
78 1 0 203 1.0 1.0 
79 1 0 45 1.0 1.0 
80 1 0 432 1.0 1.0 
81 1 0 143 1.0 1.0 
82 1 0 398 1.0 1.0 
83 1 0 518 1.0 1.0 
84 1 0 379 1.0 1.0 
85 1 0 495 1.0 1.0 
86 1 0 158 1.0 1.0 
87 1 0 134 1.0 1.0 
88 1 0 427 1.0 1.0 
89 1 0 453 1.0 1.0 
90 1 0 157 1.0 1.0 
91 1 0 112 1.0 1.0 
92 1 0 329 1.0 1.0 
93 1 0 108 1.0 1.0 
94 1 0 490 1.0 1.0 
95 1 0 503 1.0 1.0 
96 1 0 527 1.0 1.0 
97 1 0 404 1.0 1.0 
98 1 0 385 1.0 1.0 
99 1 0 347 1.0 1.0 
100 1 0 485 1.0 1.0 
101 1 0 377 1.0 1.0 
102 1 0 101 1.0 1.0 
103 1 0 372 1.0 1.0 
104 1 0 524 1.0 1.0 
105 1 0 498 1.0 1.0 
106 1 0 447 1.0 1.0 
107 1 0 459 1.0 1.0 
108 1 0 132 1.0 1.0 
109 1 0 393 1.0 1.0 
110 1 0 79 1.0 1.0 
111 1 0 81 1.0 1.0 
112 1 0 90 1.0 1.0 
113 1 0 394 1.0 1.0 
114 1 0 103 1.0 1.0 
115 1 0 448 1.0 1.0 
116 1 0 80 1.0 1.0 
117 1 0 319 1.0 1.0 
118 1 0 11 1.0 1.0 
119 1 1 342 1.0 1.0 
120 1 1 302 1.0 1.0 
121 1 1 97 1.0 1.0 
122 1 1 382 1.0 1.0 
123 1 1 311 1.0 1.0 
124 1 1 308 1.0 1.0 
125 1 1 319 1.0 1.0 
126 1 1 300 1.0 1.0 
127 1 1 320 1.0 1.0 
128 1 1 111 1.0 1.0 
129 1 1 438 1.0 1.0 
130 1 1 344 1.0 1.0 
131 1 1 303 1.0 1.0 
132 1 1 278 1.0 1.0 
133 1 1 147 1.0 1.0 
134 1 1 321 1.0 1.0 
135 1 1 140 1.0 1.0 
136 1 1 307 1.0 1.0 
137 1 1 113 1.0 1.0 
138 1 1 125 1.0 1.0 
139 1 1 35 1.0 1.0 
140 1 1 273 1.0 1.0 
141 1 1 30 1.0 1.0 
142 1 1 276 1.0 1.0 
143 1 1 180 1.0 1.0 
144 1 1 173 1.0 1.0 
145 1 1 450 1.0 1.0 
146 1 1 164 1.0 1.0 
147 1 1 409 1.0 1.0 
148 1 1 34 1.0 1.0 
149 1 1 255 1.0 1.0 
150 1 1 439 1.0 1.0 
151 1 1 165 1.0 1.0 
152 1 1 515 1.0 1.0 
153 1 1 328 1.0 1.0 
154 1 1 39 1.0 1.0 
155 1 1 464 1.0 1.0 
156 1 1 27 1.0 1.0 
157 1 1 188 1.0 1.0 
158 1 2 3 1.0 1.0 
159 1 2 4 1.0 1.0 
160 1 2 5 1.0 1.0 
161 1 2 6 1.0 1.0 
162 1 2 478 1.0 1.0 
163 1 2 201 1.0 1.0 
164 1 2 11 1.0 1.0 
165 1 3 318 1.0 1.0 
166 1 3 110 1.0 1.0 
167 1 3 463 1.0 1.0 
168 1 3 341 1.0 1.0 
169 1 3 342 1.0 1.0 
170 1 3 369 1.0 1.0 
171 1 3 92 1.0 1.0 
172 1 3 343 1.0 1.0 
173 1 3 346 1.0 1.0 
174 1 3 84 1.0 1.0 
175 1 3 294 1.0 1.0 
176 1 3 279 1.0 1.0 
177 1 3 339 1.0 1.0 
178 1 3 372 1.0 1.0 
179 1 3 1 1.0 1.0 
180 1 3 191 1.0 1.0 
181 1 3 380 1.0 1.0 
182 1 3 338 1.0 1.0 
183 1 3 344 1.0 1.0 
184 1 3 350 1.0 1.0 
185 1 3 390 1.0 1.0 
186 1 3 405 1.0 1.0 
187 1 3 481 1.0 1.0 
188 1 3 423 1.0 1.0 
189 1 3 348 1.0 1.0 
190 1 3 340 1.0 1.0 
191 1 3 302 1.0 1.0 
192 1 3 407 1.0 1.0 
193 1 3 163 1.0 1.0 
194 1 3 332 1.0 1.0 
195 1 3 290 1.0 1.0 
196 1 3 160 1.0 1.0 
197 1 3 82 1.0 1.0 
198 1 3 349 1.0 1.0 
199 1 3 107 1.0 1.0 
200 1 3 333 1.0 1.0 
201 1 3 493 1.0 1.0 
202 1 3 482 1.0 1.0 
203 1 3 353 1.0 1.0 
204 1 3 364 1.0 1.0 
205 1 3 473 1.0 1.0 
206 1 3 355 1.0 1.0 
207 1 3 362 1.0 1.0 
208 1 3 299 1.0 1.0 
209 1 3 373 1.0 1.0 
210 1 3 406 1.0 1.0 
211 1 3 300 1.0 1.0 
212 1 3 357 1.0 1.0 
213 1 3 88 1.0 1.0 
214 1 3 367 1.0 1.0 
215 1 3 363 1.0 1.0 
216 1 3 366 1.0 1.0 
217 1 3 199 1.0 1.0 
218 1 3 198 1.0 1.0 
219 1 3 391 1.0 1.0 
220 1 3 376 1.0 1.0 
221 1 3 293 1.0 1.0 
222 1 3 91 1.0 1.0 
223 1 3 100 1.0 1.0 
224 1 3 98 1.0 1.0 
225 1 3 317 1.0 1.0 
226 1 3 99 1.0 1.0 
227 1 3 109 1.0 1.0 
228 1 3 398 1.0 1.0 
229 1 3 402 1.0 1.0 
230 1 3 518 1.0 1.0 
231 1 3 379 1.0 1.0 
232 1 3 495 1.0 1.0 
233 1 3 158 1.0 1.0 
234 1 3 157 1.0 1.0 
235 1 3 112 1.0 1.0 
236 1 3 382 1.0 1.0 
237 1 3 87 1.0 1.0 
238 1 3 503 1.0 1.0 
239 1 3 527 1.0 1.0 
240 1 3 404 1.0 1.0 
241 1 3 378 1.0 1.0 
242 1 3 347 1.0 1.0 
243 1 3 377 1.0 1.0 
244 1 3 101 1.0 1.0 
245 1 3 310 1.0 1.0 
246 1 3 431 1.0 1.0 
247 1 3 524 1.0 1.0 
248 1 3 456 1.0 1.0 
249 1 3 330 1.0 1.0 
250 1 3 447 1.0 1.0 
251 1 3 459 1.0 1.0 
252 1 3 525 1.0 1.0 
253 1 3 79 1.0 1.0 
254 1 3 131 1.0 1.0 
255 1 3 145 1.0 1.0 
256 1 3 129 1.0 1.0 
257 1 3 18 1.0 1.0 
258 1 3 323 1.0 1.0 
259 1 3 311 1.0 1.0 
260 1 3 196 1.0 1.0 
261 1 3 60 1.0 1.0 
262 1 3 361 1.0 1.0 
263 1 3 221 1.0 1.0 
264 1 3 220 1.0 1.0 
265 1 3 219 1.0 1.0 
266 1 3 13 1.0 1.0 
267 1 3 218 1.0 1.0 
268 1 3 217 1.0 1.0 
269 1 3 216 1.0 1.0 
270 1 3 10 1.0 1.0 
271 1 3 49 1.0 1.0 
272 1 3 215 1.0 1.0 
273 1 3 214 1.0 1.0 
274 1 3 33 1.0 1.0 
275 1 3 213 1.0 1.0 
276 1 3 55 1.0 1.0 
277 1 3 46 1.0 1.0 
278 1 3 3 1.0 1.0 
279 1 3 233 1.0 1.0 
280 1 3 12 1.0 1.0 
281 1 3 232 1.0 1.0 
282 1 3 152 1.0 1.0 
283 1 3 231 1.0 1.0 
284 1 3 230 1.0 1.0 
285 1 3 229 1.0 1.0 
286 1 3 228 1.0 1.0 
287 1 3 122 1.0 1.0 
288 1 3 227 1.0 1.0 
289 1 3 226 1.0 1.0 
290 1 3 225 1.0 1.0 
291 1 3 147 1.0 1.0 
292 1 3 328 1.0 1.0 
293 1 3 222 1.0 1.0 
294 1 3 53 1.0 1.0 
295 1 3 38 1.0 1.0 
296 1 3 15 1.0 1.0 
297 1 3 238 1.0 1.0 
298 1 3 237 1.0 1.0 
299 1 3 236 1.0 1.0 
300 1 3 235 1.0 1.0 
301 1 3 234 1.0 1.0 
302 1 3 56 1.0 1.0 
303 1 3 240 1.0 1.0 
304 1 3 44 1.0 1.0 
305 1 3 239 1.0 1.0 
306 1 3 241 1.0 1.0 
307 1 3 36 1.0 1.0 
308 1 3 31 1.0 1.0 
309 1 3 246 1.0 1.0 
310 1 3 57 1.0 1.0 
311 1 3 245 1.0 1.0 
312 1 3 244 1.0 1.0 
313 1 3 54 1.0 1.0 
314 1 3 243 1.0 1.0 
315 1 3 242 1.0 1.0 
316 1 3 247 1.0 1.0 
317 1 3 248 1.0 1.0 
318 1 3 249 1.0 1.0 
319 1 3 250 1.0 1.0 
320 1 3 251 1.0 1.0 
321 1 3 252 1.0 1.0 
322 1 3 29 1.0 1.0 
323 1 3 52 1.0 1.0 
324 1 3 321 1.0 1.0 
325 1 3 121 1.0 1.0 
326 1 3 253 1.0 1.0 
327 1 3 254 1.0 1.0 
328 1 3 255 1.0 1.0 
329 1 3 256 1.0 1.0 
330 1 3 21 1.0 1.0 
331 1 3 6 1.0 1.0 
332 1 3 257 1.0 1.0 
333 1 3 307 1.0 1.0 
334 1 3 259 1.0 1.0 
335 1 3 258 1.0 1.0 
336 1 3 40 1.0 1.0 
337 1 3 25 1.0 1.0 
338 1 3 261 1.0 1.0 
339 1 3 262 1.0 1.0 
340 1 3 41 1.0 1.0 
341 1 3 264 1.0 1.0 
342 1 3 151 1.0 1.0 
343 1 3 22 1.0 1.0 
344 1 3 263 1.0 1.0 
345 1 3 51 1.0 1.0 
346 1 3 42 1.0 1.0 
347 1 3 265 1.0 1.0 
348 1 3 43 1.0 1.0 
349 1 3 266 1.0 1.0 
350 1 3 267 1.0 1.0 
351 1 3 17 1.0 1.0 
352 1 3 19 1.0 1.0 
353 1 3 166 1.0 1.0 
354 1 3 14 1.0 1.0 
355 1 3 268 1.0 1.0 
356 1 3 35 1.0 1.0 
357 1 3 269 1.0 1.0 
358 1 3 270 1.0 1.0 
359 1 3 271 1.0 1.0 
360 1 3 178 1.0 1.0 
361 1 3 167 1.0 1.0 
362 1 3 32 1.0 1.0 
363 1 3 273 1.0 1.0 
364 1 3 156 1.0 1.0 
365 1 3 274 1.0 1.0 
366 1 3 275 1.0 1.0 
367 1 3 30 1.0 1.0 
368 1 3 276 1.0 1.0 
369 1 3 20 1.0 1.0 
370 1 3 277 1.0 1.0 
371 1 3 27 1.0 1.0 
372 1 3 37 1.0 1.0 
373 1 3 24 1.0 1.0 
374 1 3 26 1.0 1.0 
375 1 3 39 1.0 1.0 
376 1 3 278 1.0 1.0 
377 1 3 179 1.0 1.0 
378 1 3 168 1.0 1.0 
379 1 3 169 1.0 1.0 
380 1 3 180 1.0 1.0 
381 1 3 170 1.0 1.0 
382 1 3 164 1.0 1.0 
383 1 3 172 1.0 1.0 
384 1 3 181 1.0 1.0 
385 1 3 173 1.0 1.0 
386 1 3 114 1.0 1.0 
387 1 3 136 1.0 1.0 
388 1 3 186 1.0 1.0 
389 1 3 187 1.0 1.0 
390 1 3 185 1.0 1.0 
391 1 3 182 1.0 1.0 
392 1 3 174 1.0 1.0 
393 1 3 175 1.0 1.0 
394 1 3 176 1.0 1.0 
395 1 3 177 1.0 1.0 
396 1 3 188 1.0 1.0 
397 1 3 183 1.0 1.0 
398 1 3 8 1.0 1.0 
399 1 3 532 1.0 1.0 
400 1 3 23 1.0 1.0 
401 1 3 449 1.0 1.0 
402 1 3 143 1.0 1.0 
403 1 3 395 1.0 1.0 
404 1 3 536 1.0 1.0 
405 1 3 146 1.0 1.0 
406 1 3 418 1.0 1.0 
407 1 3 128 1.0 1.0 
408 1 3 450 1.0 1.0 
409 1 3 494 1.0 1.0 
410 1 3 127 1.0 1.0 
411 1 3 413 1.0 1.0 
412 1 3 16 1.0 1.0 
413 1 3 520 1.0 1.0 
414 1 3 134 1.0 1.0 
415 1 3 155 1.0 1.0 
416 1 3 427 1.0 1.0 
417 1 3 280 1.0 1.0 
418 1 3 502 1.0 1.0 
419 1 3 529 1.0 1.0 
420 1 3 2 1.0 1.0 
421 1 3 497 1.0 1.0 
422 1 3 329 1.0 1.0 
423 1 3 76 1.0 1.0 
424 1 3 501 1.0 1.0 
425 1 3 521 1.0 1.0 
426 1 3 409 1.0 1.0 
427 1 3 135 1.0 1.0 
428 1 3 117 1.0 1.0 
429 1 3 28 1.0 1.0 
430 1 3 434 1.0 1.0 
431 1 3 415 1.0 1.0 
432 1 3 153 1.0 1.0 
433 1 3 414 1.0 1.0 
434 1 3 34 1.0 1.0 
435 1 3 445 1.0 1.0 
436 1 3 120 1.0 1.0 
437 1 3 410 1.0 1.0 
438 1 3 436 1.0 1.0 
439 1 3 388 1.0 1.0 
440 1 3 412 1.0 1.0 
441 1 3 530 1.0 1.0 
442 1 3 326 1.0 1.0 
443 1 3 138 1.0 1.0 
444 1 3 426 1.0 1.0 
445 1 3 446 1.0 1.0 
446 1 3 392 1.0 1.0 
447 1 3 125 1.0 1.0 
448 1 3 149 1.0 1.0 
449 1 3 224 1.0 1.0 
450 1 3 439 1.0 1.0 
451 1 3 165 1.0 1.0 
452 1 3 437 1.0 1.0 
453 1 3 484 1.0 1.0 
454 1 3 113 1.0 1.0 
455 1 3 496 1.0 1.0 
456 1 3 469 1.0 1.0 
457 1 3 396 1.0 1.0 
458 1 3 435 1.0 1.0 
459 1 3 451 1.0 1.0 
460 1 3 519 1.0 1.0 
461 1 3 485 1.0 1.0 
462 1 3 411 1.0 1.0 
463 1 3 130 1.0 1.0 
464 1 3 322 1.0 1.0 
465 1 3 324 1.0 1.0 
466 1 3 419 1.0 1.0 
467 1 3 421 1.0 1.0 
468 1 3 137 1.0 1.0 
469 1 3 189 1.0 1.0 
470 1 3 124 1.0 1.0 
471 1 3 325 1.0 1.0 
472 1 3 513 1.0 1.0 
473 1 3 142 1.0 1.0 
474 1 3 327 1.0 1.0 
475 1 3 133 1.0 1.0 
476 1 3 132 1.0 1.0 
477 1 3 393 1.0 1.0 
478 1 3 144 1.0 1.0 
479 1 3 126 1.0 1.0 
480 1 3 140 1.0 1.0 
481 1 3 394 1.0 1.0 
482 1 3 141 1.0 1.0 
483 1 3 139 1.0 1.0 
484 1 3 448 1.0 1.0 
485 1 3 80 1.0 1.0 
486 1 3 319 1.0 1.0 
487 1 3 11 1.0 1.0 
488 1 4 40 1.0 1.0 
489 1 4 42 1.0 1.0 
490 1 4 303 1.0 1.0 
491 1 4 480 1.0 1.0 
492 1 4 139 1.0 1.0 
493 1 4 143 1.0 1.0 
494 1 4 414 1.0 1.0 
495 1 4 126 1.0 1.0 
496 1 4 58 1.0 1.0 
497 1 4 388 1.0 1.0 
498 1 4 5 1.0 1.0 
499 1 4 93 1.0 1.0 
500 1 4 3 1.0 1.0 
501 1 4 217 1.0 1.0 
502 1 4 209 1.0 1.0 
503 1 4 211 1.0 1.0 
504 1 4 488 1.0 1.0 
505 1 4 292 1.0 1.0 
506 1 4 336 1.0 1.0 
507 1 4 333 1.0 1.0 
508 1 4 85 1.0 1.0 
509 1 4 423 1.0 1.0 
510 1 4 339 1.0 1.0 
511 1 4 82 1.0 1.0 
512 1 4 348 1.0 1.0 
513 1 4 344 1.0 1.0 
514 1 4 349 1.0 1.0 
515 1 4 365 1.0 1.0 
516 1 4 359 1.0 1.0 
517 1 4 163 1.0 1.0 
518 1 4 482 1.0 1.0 
519 1 4 356 1.0 1.0 
520 1 4 361 1.0 1.0 
521 1 4 483 1.0 1.0 
522 1 4 345 1.0 1.0 
523 1 4 206 1.0 1.0 
524 1 4 491 1.0 1.0 
525 1 4 169 1.0 1.0 
526 1 4 395 1.0 1.0 
527 1 4 450 1.0 1.0 
528 1 4 157 1.0 1.0 
529 1 4 434 1.0 1.0 
530 1 4 445 1.0 1.0 
531 1 4 467 1.0 1.0 
532 1 4 437 1.0 1.0 
533 1 4 310 1.0 1.0 
534 1 4 189 1.0 1.0 
535 1 4 474 1.0 1.0 
536 1 4 330 1.0 1.0 
537 1 4 447 1.0 1.0 
538 1 4 459 1.0 1.0 
539 1 4 81 1.0 1.0 
540 1 4 448 1.0 1.0 
541 1 4 11 1.0 1.0 
542 1 5 464 1.0 1.0 
543 1 5 293 1.0 1.0 
544 1 5 107 1.0 1.0 
545 1 5 279 1.0 1.0 
546 1 5 371 1.0 1.0 
547 1 5 311 1.0 1.0 
548 1 5 335 1.0 1.0 
549 1 5 349 1.0 1.0 
550 1 5 483 1.0 1.0 
551 1 5 282 1.0 1.0 
552 1 5 348 1.0 1.0 
553 1 5 374 1.0 1.0 
554 1 5 202 1.0 1.0 
555 1 5 369 1.0 1.0 
556 1 5 312 1.0 1.0 
557 1 5 342 1.0 1.0 
558 1 5 406 1.0 1.0 
559 1 5 323 1.0 1.0 
560 1 5 345 1.0 1.0 
561 1 5 391 1.0 1.0 
562 1 5 292 1.0 1.0 
563 1 5 354 1.0 1.0 
564 1 5 92 1.0 1.0 
565 1 5 366 1.0 1.0 
566 1 5 294 1.0 1.0 
567 1 5 290 1.0 1.0 
568 1 5 331 1.0 1.0 
569 1 5 303 1.0 1.0 
570 1 5 285 1.0 1.0 
571 1 5 423 1.0 1.0 
572 1 5 341 1.0 1.0 
573 1 5 301 1.0 1.0 
574 1 5 336 1.0 1.0 
575 1 5 196 1.0 1.0 
576 1 5 477 1.0 1.0 
577 1 5 351 1.0 1.0 
578 1 5 88 1.0 1.0 
579 1 5 302 1.0 1.0 
580 1 5 197 1.0 1.0 
581 1 5 373 1.0 1.0 
582 1 5 334 1.0 1.0 
583 1 5 390 1.0 1.0 
584 1 5 84 1.0 1.0 
585 1 5 191 1.0 1.0 
586 1 5 346 1.0 1.0 
587 1 5 96 1.0 1.0 
588 1 5 376 1.0 1.0 
589 1 5 420 1.0 1.0 
590 1 5 340 1.0 1.0 
591 1 5 110 1.0 1.0 
592 1 5 86 1.0 1.0 
593 1 5 309 1.0 1.0 
594 1 5 407 1.0 1.0 
595 1 5 162 1.0 1.0 
596 1 5 370 1.0 1.0 
597 1 5 94 1.0 1.0 
598 1 5 344 1.0 1.0 
599 1 5 332 1.0 1.0 
600 1 5 463 1.0 1.0 
601 1 5 82 1.0 1.0 
602 1 5 85 1.0 1.0 
603 1 5 482 1.0 1.0 
604 1 5 296 1.0 1.0 
605 1 5 297 1.0 1.0 
606 1 5 442 1.0 1.0 
607 1 5 476 1.0 1.0 
608 1 5 338 1.0 1.0 
609 1 5 473 1.0 1.0 
610 1 5 461 1.0 1.0 
611 1 5 365 1.0 1.0 
612 1 5 353 1.0 1.0 
613 1 5 362 1.0 1.0 
614 1 5 408 1.0 1.0 
615 1 5 160 1.0 1.0 
616 1 5 339 1.0 1.0 
617 1 5 295 1.0 1.0 
618 1 5 443 1.0 1.0 
619 1 5 308 1.0 1.0 
620 1 5 343 1.0 1.0 
621 1 5 305 1.0 1.0 
622 1 5 381 1.0 1.0 
623 1 5 91 1.0 1.0 
624 1 5 304 1.0 1.0 
625 1 5 358 1.0 1.0 
626 1 5 163 1.0 1.0 
627 1 5 102 1.0 1.0 
628 1 5 75 1.0 1.0 
629 1 5 333 1.0 1.0 
630 1 5 405 1.0 1.0 
631 1 5 299 1.0 1.0 
632 1 5 481 1.0 1.0 
633 1 5 350 1.0 1.0 
634 1 5 288 1.0 1.0 
635 1 5 316 1.0 1.0 
636 1 5 284 1.0 1.0 
637 1 5 1 1.0 1.0 
638 1 5 300 1.0 1.0 
639 1 5 111 1.0 1.0 
640 1 5 317 1.0 1.0 
641 1 5 356 1.0 1.0 
642 1 5 372 1.0 1.0 
643 1 5 375 1.0 1.0 
644 1 5 380 1.0 1.0 
645 1 5 367 1.0 1.0 
646 1 5 318 1.0 1.0 
647 1 5 320 1.0 1.0 
648 1 5 314 1.0 1.0 
649 1 5 500 1.0 1.0 
650 1 5 499 1.0 1.0 
651 1 5 45 1.0 1.0 
652 1 5 533 1.0 1.0 
653 1 5 265 1.0 1.0 
654 1 5 455 1.0 1.0 
655 1 5 401 1.0 1.0 
656 1 5 151 1.0 1.0 
657 1 5 238 1.0 1.0 
658 1 5 179 1.0 1.0 
659 1 5 93 1.0 1.0 
660 1 5 493 1.0 1.0 
661 1 5 106 1.0 1.0 
662 1 5 363 1.0 1.0 
663 1 5 170 1.0 1.0 
664 1 5 67 1.0 1.0 
665 1 5 468 1.0 1.0 
666 1 5 429 1.0 1.0 
667 1 5 0 1.0 1.0 
668 1 5 364 1.0 1.0 
669 1 5 357 1.0 1.0 
670 1 5 108 1.0 1.0 
671 1 5 56 1.0 1.0 
672 1 5 51 1.0 1.0 
673 1 5 281 1.0 1.0 
674 1 5 489 1.0 1.0 
675 1 5 355 1.0 1.0 
676 1 5 386 1.0 1.0 
677 1 5 465 1.0 1.0 
678 1 5 98 1.0 1.0 
679 1 5 100 1.0 1.0 
680 1 5 457 1.0 1.0 
681 1 5 105 1.0 1.0 
682 1 5 109 1.0 1.0 
683 1 5 480 1.0 1.0 
684 1 5 154 1.0 1.0 
685 1 5 4 1.0 1.0 
686 1 5 389 1.0 1.0 
687 1 5 432 1.0 1.0 
688 1 5 398 1.0 1.0 
689 1 5 402 1.0 1.0 
690 1 5 518 1.0 1.0 
691 1 5 379 1.0 1.0 
692 1 5 495 1.0 1.0 
693 1 5 520 1.0 1.0 
694 1 5 158 1.0 1.0 
695 1 5 453 1.0 1.0 
696 1 5 399 1.0 1.0 
697 1 5 157 1.0 1.0 
698 1 5 112 1.0 1.0 
699 1 5 452 1.0 1.0 
700 1 5 382 1.0 1.0 
701 1 5 490 1.0 1.0 
702 1 5 87 1.0 1.0 
703 1 5 467 1.0 1.0 
704 1 5 503 1.0 1.0 
705 1 5 289 1.0 1.0 
706 1 5 487 1.0 1.0 
707 1 5 527 1.0 1.0 
708 1 5 404 1.0 1.0 
709 1 5 378 1.0 1.0 
710 1 5 437 1.0 1.0 
711 1 5 385 1.0 1.0 
712 1 5 347 1.0 1.0 
713 1 5 485 1.0 1.0 
714 1 5 377 1.0 1.0 
715 1 5 508 1.0 1.0 
716 1 5 400 1.0 1.0 
717 1 5 101 1.0 1.0 
718 1 5 454 1.0 1.0 
719 1 5 422 1.0 1.0 
720 1 5 310 1.0 1.0 
721 1 5 431 1.0 1.0 
722 1 5 507 1.0 1.0 
723 1 5 360 1.0 1.0 
724 1 5 524 1.0 1.0 
725 1 5 456 1.0 1.0 
726 1 5 475 1.0 1.0 
727 1 5 474 1.0 1.0 
728 1 5 498 1.0 1.0 
729 1 5 330 1.0 1.0 
730 1 5 447 1.0 1.0 
731 1 5 459 1.0 1.0 
732 1 5 525 1.0 1.0 
733 1 5 79 1.0 1.0 
734 1 5 81 1.0 1.0 
735 1 5 90 1.0 1.0 
736 1 5 103 1.0 1.0 
737 1 5 448 1.0 1.0 
738 1 5 80 1.0 1.0 
739 1 5 458 1.0 1.0 
740 1 5 319 1.0 1.0 
741 1 6 338 1.0 1.0 
742 1 6 423 1.0 1.0 
743 1 6 159 1.0 1.0 
744 1 6 98 1.0 1.0 
745 1 6 299 1.0 1.0 
746 1 6 331 1.0 1.0 
747 1 6 162 1.0 1.0 
748 1 6 364 1.0 1.0 
749 1 6 333 1.0 1.0 
750 1 6 91 1.0 1.0 
751 1 6 332 1.0 1.0 
752 1 6 86 1.0 1.0 
753 1 6 345 1.0 1.0 
754 1 6 343 1.0 1.0 
755 1 6 346 1.0 1.0 
756 1 6 340 1.0 1.0 
757 1 6 422 1.0 1.0 
758 1 6 288 1.0 1.0 
759 1 6 337 1.0 1.0 
760 1 6 335 1.0 1.0 
761 1 6 341 1.0 1.0 
762 1 6 348 1.0 1.0 
763 1 6 357 1.0 1.0 
764 1 6 367 1.0 1.0 
765 1 6 82 1.0 1.0 
766 1 6 312 1.0 1.0 
767 1 6 366 1.0 1.0 
768 1 6 365 1.0 1.0 
769 1 6 349 1.0 1.0 
770 1 6 88 1.0 1.0 
771 1 6 350 1.0 1.0 
772 1 6 344 1.0 1.0 
773 1 6 84 1.0 1.0 
774 1 6 89 1.0 1.0 
775 1 6 105 1.0 1.0 
776 1 6 398 1.0 1.0 
777 1 6 518 1.0 1.0 
778 1 6 87 1.0 1.0 
779 1 6 347 1.0 1.0 
780 1 6 485 1.0 1.0 
781 1 6 377 1.0 1.0 
782 1 6 101 1.0 1.0 
783 1 6 310 1.0 1.0 
784 1 6 360 1.0 1.0 
785 1 6 375 1.0 1.0 
786 1 6 0 1.0 1.0 
787 1 6 498 1.0 1.0 
788 1 6 330 1.0 1.0 
789 1 6 525 1.0 1.0 
790 1 6 81 1.0 1.0 
791 1 6 90 1.0 1.0 
792 1 6 103 1.0 1.0 
793 1 6 448 1.0 1.0 
794 1 7 9 1.0 1.0 
795 1 7 413 1.0 1.0 
796 1 7 44 1.0 1.0 
797 1 7 4 1.0 1.0 
798 1 7 139 1.0 1.0 
799 1 7 11 1.0 1.0 
800 1 7 141 1.0 1.0 
801 1 7 445 1.0 1.0 
802 1 7 126 1.0 1.0 
803 1 7 259 1.0 1.0 
804 1 7 189 1.0 1.0 
805 1 7 70 1.0 1.0 
806 1 7 12 1.0 1.0 
807 1 7 392 1.0 1.0 
808 1 7 221 1.0 1.0 
809 1 7 218 1.0 1.0 
810 1 7 230 1.0 1.0 
811 1 7 152 1.0 1.0 
812 1 7 49 1.0 1.0 
813 1 7 220 1.0 1.0 
814 1 7 13 1.0 1.0 
815 1 7 66 1.0 1.0 
816 1 7 3 1.0 1.0 
817 1 7 46 1.0 1.0 
818 1 7 213 1.0 1.0 
819 1 7 53 1.0 1.0 
820 1 7 33 1.0 1.0 
821 1 7 217 1.0 1.0 
822 1 7 228 1.0 1.0 
823 1 7 10 1.0 1.0 
824 1 7 122 1.0 1.0 
825 1 7 226 1.0 1.0 
826 1 7 215 1.0 1.0 
827 1 7 328 1.0 1.0 
828 1 7 238 1.0 1.0 
829 1 7 236 1.0 1.0 
830 1 7 31 1.0 1.0 
831 1 7 55 1.0 1.0 
832 1 7 56 1.0 1.0 
833 1 7 246 1.0 1.0 
834 1 7 234 1.0 1.0 
835 1 7 214 1.0 1.0 
836 1 7 244 1.0 1.0 
837 1 7 54 1.0 1.0 
838 1 7 237 1.0 1.0 
839 1 7 240 1.0 1.0 
840 1 7 216 1.0 1.0 
841 1 7 231 1.0 1.0 
842 1 7 241 1.0 1.0 
843 1 7 38 1.0 1.0 
844 1 7 227 1.0 1.0 
845 1 7 232 1.0 1.0 
846 1 7 239 1.0 1.0 
847 1 7 225 1.0 1.0 
848 1 7 243 1.0 1.0 
849 1 7 235 1.0 1.0 
850 1 7 29 1.0 1.0 
851 1 7 52 1.0 1.0 
852 1 7 252 1.0 1.0 
853 1 7 229 1.0 1.0 
854 1 7 222 1.0 1.0 
855 1 7 250 1.0 1.0 
856 1 7 248 1.0 1.0 
857 1 7 121 1.0 1.0 
858 1 7 254 1.0 1.0 
859 1 7 256 1.0 1.0 
860 1 7 6 1.0 1.0 
861 1 7 253 1.0 1.0 
862 1 7 8 1.0 1.0 
863 1 7 428 1.0 1.0 
864 1 7 72 1.0 1.0 
865 1 7 532 1.0 1.0 
866 1 7 449 1.0 1.0 
867 1 7 502 1.0 1.0 
868 1 7 529 1.0 1.0 
869 1 7 501 1.0 1.0 
870 1 7 434 1.0 1.0 
871 1 7 415 1.0 1.0 
872 1 7 410 1.0 1.0 
873 1 7 412 1.0 1.0 
874 1 7 326 1.0 1.0 
875 1 7 224 1.0 1.0 
876 1 7 437 1.0 1.0 
877 1 7 396 1.0 1.0 
878 1 7 451 1.0 1.0 
879 1 7 41 1.0 1.0 
880 1 7 166 1.0 1.0 
881 1 7 419 1.0 1.0 
882 1 7 421 1.0 1.0 
883 1 7 325 1.0 1.0 
884 1 7 142 1.0 1.0 
885 1 7 393 1.0 1.0 
886 1 7 27 1.0 1.0 
887 1 7 394 1.0 1.0 
888 1 8 216 1.0 1.0 
889 1 8 36 1.0 1.0 
890 1 8 29 1.0 1.0 
891 1 8 22 1.0 1.0 
892 1 8 17 1.0 1.0 
893 1 8 270 1.0 1.0 
894 1 8 275 1.0 1.0 
895 1 8 274 1.0 1.0 
896 1 8 30 1.0 1.0 
897 1 8 277 1.0 1.0 
898 1 8 20 1.0 1.0 
899 1 8 37 1.0 1.0 
900 1 8 24 1.0 1.0 
901 1 8 179 1.0 1.0 
902 1 8 278 1.0 1.0 
903 1 8 161 1.0 1.0 
904 1 8 417 1.0 1.0 
905 1 8 172 1.0 1.0 
906 1 8 175 1.0 1.0 
907 1 8 177 1.0 1.0 
908 1 8 183 1.0 1.0 
909 1 8 60 1.0 1.0 
910 1 8 247 1.0 1.0 
911 1 8 168 1.0 1.0 
912 1 8 141 1.0 1.0 
913 1 8 272 1.0 1.0 
914 1 8 149 1.0 1.0 
915 1 8 171 1.0 1.0 
916 1 8 307 1.0 1.0 
917 1 8 396 1.0 1.0 
918 1 8 176 1.0 1.0 
919 1 8 188 1.0 1.0 
920 1 8 156 1.0 1.0 
921 1 8 178 1.0 1.0 
922 1 8 82 1.0 1.0 
923 1 8 271 1.0 1.0 
924 1 8 139 1.0 1.0 
925 1 8 174 1.0 1.0 
926 1 8 169 1.0 1.0 
927 1 8 180 1.0 1.0 
928 1 8 114 1.0 1.0 
929 1 8 185 1.0 1.0 
930 1 8 173 1.0 1.0 
931 1 8 164 1.0 1.0 
932 1 8 136 1.0 1.0 
933 1 8 186 1.0 1.0 
934 1 8 170 1.0 1.0 
935 1 8 187 1.0 1.0 
936 1 8 182 1.0 1.0 
937 1 8 181 1.0 1.0 
938 1 8 212 1.0 1.0 
939 1 8 201 1.0 1.0 
940 1 8 397 1.0 1.0 
941 1 8 26 1.0 1.0 
942 1 8 276 1.0 1.0 
943 1 8 39 1.0 1.0 
944 1 8 27 1.0 1.0 
945 1 8 262 1.0 1.0 
946 1 8 14 1.0 1.0 
947 1 8 273 1.0 1.0 
948 1 8 257 1.0 1.0 
949 1 8 266 1.0 1.0 
950 1 8 210 1.0 1.0 
951 1 8 209 1.0 1.0 
952 1 8 61 1.0 1.0 
953 1 8 63 1.0 1.0 
954 1 8 319 1.0 1.0 
955 1 8 47 1.0 1.0 
956 1 8 194 1.0 1.0 
957 1 8 62 1.0 1.0 
958 1 8 391 1.0 1.0 
959 1 8 73 1.0 1.0 
960 1 8 356 1.0 1.0 
961 1 8 123 1.0 1.0 
962 1 8 121 1.0 1.0 
963 1 8 242 1.0 1.0 
964 1 8 256 1.0 1.0 
965 1 8 6 1.0 1.0 
966 1 8 32 1.0 1.0 
967 1 8 353 1.0 1.0 
968 1 8 219 1.0 1.0 
969 1 8 72 1.0 1.0 
970 1 8 91 1.0 1.0 
971 1 8 370 1.0 1.0 
972 1 8 41 1.0 1.0 
973 1 8 66 1.0 1.0 
974 1 8 64 1.0 1.0 
975 1 8 77 1.0 1.0 
976 1 8 13 1.0 1.0 
977 1 8 95 1.0 1.0 
978 1 8 320 1.0 1.0 
979 1 8 196 1.0 1.0 
980 1 8 197 1.0 1.0 
981 1 8 42 1.0 1.0 
982 1 8 250 1.0 1.0 
983 1 8 254 1.0 1.0 
984 1 8 240 1.0 1.0 
985 1 8 255 1.0 1.0 
986 1 8 55 1.0 1.0 
987 1 8 110 1.0 1.0 
988 1 8 376 1.0 1.0 
989 1 8 390 1.0 1.0 
990 1 8 380 1.0 1.0 
991 1 8 290 1.0 1.0 
992 1 8 57 1.0 1.0 
993 1 8 25 1.0 1.0 
994 1 8 267 1.0 1.0 
995 1 8 232 1.0 1.0 
996 1 8 49 1.0 1.0 
997 1 8 230 1.0 1.0 
998 1 8 291 1.0 1.0 
999 1 8 93 1.0 1.0 
1000 1 8 214 1.0 1.0 
1001 1 8 342 1.0 1.0 
1002 1 8 167 1.0 1.0 
1003 1 8 243 1.0 1.0 
1004 1 8 241 1.0 1.0 
1005 1 8 463 1.0 1.0 
1006 1 8 265 1.0 1.0 
1007 1 8 372 1.0 1.0 
1008 1 8 215 1.0 1.0 
1009 1 8 258 1.0 1.0 
1010 1 8 373 1.0 1.0 
1011 1 8 189 1.0 1.0 
1012 1 8 268 1.0 1.0 
1013 1 8 259 1.0 1.0 
1014 1 8 46 1.0 1.0 
1015 1 8 52 1.0 1.0 
1016 1 8 19 1.0 1.0 
1017 1 8 311 1.0 1.0 
1018 1 8 5 1.0 1.0 
1019 1 8 315 1.0 1.0 
1020 1 8 306 1.0 1.0 
1021 1 8 406 1.0 1.0 
1022 1 8 473 1.0 1.0 
1023 1 8 351 1.0 1.0 
1024 1 8 88 1.0 1.0 
1025 1 8 281 1.0 1.0 
1026 1 8 299 1.0 1.0 
1027 1 8 298 1.0 1.0 
1028 1 8 163 1.0 1.0 
1029 1 8 316 1.0 1.0 
1030 1 8 111 1.0 1.0 
1031 1 8 106 1.0 1.0 
1032 1 8 98 1.0 1.0 
1033 1 8 31 1.0 1.0 
1034 1 8 301 1.0 1.0 
1035 1 8 105 1.0 1.0 
1036 1 8 300 1.0 1.0 
1037 1 8 292 1.0 1.0 
1038 1 8 200 1.0 1.0 
1039 1 8 303 1.0 1.0 
1040 1 8 1 1.0 1.0 
1041 1 8 312 1.0 1.0 
1042 1 8 295 1.0 1.0 
1043 1 8 359 1.0 1.0 
1044 1 8 368 1.0 1.0 
1045 1 8 50 1.0 1.0 
1046 1 8 51 1.0 1.0 
1047 1 8 293 1.0 1.0 
1048 1 8 371 1.0 1.0 
1049 1 8 264 1.0 1.0 
1050 1 8 375 1.0 1.0 
1051 1 8 441 1.0 1.0 
1052 1 8 40 1.0 1.0 
1053 1 8 381 1.0 1.0 
1054 1 8 387 1.0 1.0 
1055 1 8 478 1.0 1.0 
1056 1 8 74 1.0 1.0 
1057 1 8 206 1.0 1.0 
1058 1 8 150 1.0 1.0 
1059 1 8 104 1.0 1.0 
1060 1 8 486 1.0 1.0 
1061 1 8 208 1.0 1.0 
1062 1 8 207 1.0 1.0 
1063 1 8 154 1.0 1.0 
1064 1 8 7 1.0 1.0 
1065 1 8 532 1.0 1.0 
1066 1 8 4 1.0 1.0 
1067 1 8 23 1.0 1.0 
1068 1 8 143 1.0 1.0 
1069 1 8 536 1.0 1.0 
1070 1 8 398 1.0 1.0 
1071 1 8 128 1.0 1.0 
1072 1 8 494 1.0 1.0 
1073 1 8 127 1.0 1.0 
1074 1 8 518 1.0 1.0 
1075 1 8 16 1.0 1.0 
1076 1 8 520 1.0 1.0 
1077 1 8 129 1.0 1.0 
1078 1 8 158 1.0 1.0 
1079 1 8 134 1.0 1.0 
1080 1 8 155 1.0 1.0 
1081 1 8 427 1.0 1.0 
1082 1 8 453 1.0 1.0 
1083 1 8 280 1.0 1.0 
1084 1 8 399 1.0 1.0 
1085 1 8 529 1.0 1.0 
1086 1 8 2 1.0 1.0 
1087 1 8 112 1.0 1.0 
1088 1 8 497 1.0 1.0 
1089 1 8 329 1.0 1.0 
1090 1 8 76 1.0 1.0 
1091 1 8 521 1.0 1.0 
1092 1 8 131 1.0 1.0 
1093 1 8 409 1.0 1.0 
1094 1 8 135 1.0 1.0 
1095 1 8 117 1.0 1.0 
1096 1 8 28 1.0 1.0 
1097 1 8 415 1.0 1.0 
1098 1 8 153 1.0 1.0 
1099 1 8 382 1.0 1.0 
1100 1 8 34 1.0 1.0 
1101 1 8 445 1.0 1.0 
1102 1 8 120 1.0 1.0 
1103 1 8 436 1.0 1.0 
1104 1 8 388 1.0 1.0 
1105 1 8 457 1.0 1.0 
1106 1 8 326 1.0 1.0 
1107 1 8 138 1.0 1.0 
1108 1 8 426 1.0 1.0 
1109 1 8 125 1.0 1.0 
1110 1 8 404 1.0 1.0 
1111 1 8 439 1.0 1.0 
1112 1 8 113 1.0 1.0 
1113 1 8 496 1.0 1.0 
1114 1 8 469 1.0 1.0 
1115 1 8 519 1.0 1.0 
1116 1 8 411 1.0 1.0 
1117 1 8 130 1.0 1.0 
1118 1 8 400 1.0 1.0 
1119 1 8 322 1.0 1.0 
1120 1 8 145 1.0 1.0 
1121 1 8 324 1.0 1.0 
1122 1 8 419 1.0 1.0 
1123 1 8 137 1.0 1.0 
1124 1 8 524 1.0 1.0 
1125 1 8 475 1.0 1.0 
1126 1 8 124 1.0 1.0 
1127 1 8 325 1.0 1.0 
1128 1 8 474 1.0 1.0 
1129 1 8 327 1.0 1.0 
1130 1 8 133 1.0 1.0 
1131 1 8 132 1.0 1.0 
1132 1 8 403 1.0 1.0 
1133 1 8 79 1.0 1.0 
1134 1 8 126 1.0 1.0 
1135 1 8 140 1.0 1.0 
1136 1 8 80 1.0 1.0 
1137 1 9 499 1.0 1.0 
1138 1 9 300 1.0 1.0 
1139 1 9 48 1.0 1.0 
1140 1 9 462 1.0 1.0 
1141 1 9 87 1.0 1.0 
1142 1 9 362 1.0 1.0 
1143 1 9 423 1.0 1.0 
1144 1 9 296 1.0 1.0 
1145 1 9 401 1.0 1.0 
1146 1 9 200 1.0 1.0 
1147 1 9 90 1.0 1.0 
1148 1 9 255 1.0 1.0 
1149 1 9 47 1.0 1.0 
1150 1 9 350 1.0 1.0 
1151 1 9 279 1.0 1.0 
1152 1 9 365 1.0 1.0 
1153 1 9 163 1.0 1.0 
1154 1 9 83 1.0 1.0 
1155 1 9 332 1.0 1.0 
1156 1 9 344 1.0 1.0 
1157 1 9 105 1.0 1.0 
1158 1 9 481 1.0 1.0 
1159 1 9 482 1.0 1.0 
1160 1 9 84 1.0 1.0 
1161 1 9 345 1.0 1.0 
1162 1 9 348 1.0 1.0 
1163 1 9 335 1.0 1.0 
1164 1 9 349 1.0 1.0 
1165 1 9 333 1.0 1.0 
1166 1 9 309 1.0 1.0 
1167 1 9 162 1.0 1.0 
1168 1 9 164 1.0 1.0 
1169 1 9 310 1.0 1.0 
1170 1 9 85 1.0 1.0 
1171 1 9 110 1.0 1.0 
1172 1 9 360 1.0 1.0 
1173 1 9 96 1.0 1.0 
1174 1 9 363 1.0 1.0 
1175 1 9 323 1.0 1.0 
1176 1 9 420 1.0 1.0 
1177 1 9 102 1.0 1.0 
1178 1 9 405 1.0 1.0 
1179 1 9 477 1.0 1.0 
1180 1 9 295 1.0 1.0 
1181 1 9 366 1.0 1.0 
1182 1 9 351 1.0 1.0 
1183 1 9 342 1.0 1.0 
1184 1 9 312 1.0 1.0 
1185 1 9 89 1.0 1.0 
1186 1 9 443 1.0 1.0 
1187 1 9 317 1.0 1.0 
1188 1 9 217 1.0 1.0 
1189 1 9 463 1.0 1.0 
1190 1 9 95 1.0 1.0 
1191 1 9 464 1.0 1.0 
1192 1 9 88 1.0 1.0 
1193 1 9 355 1.0 1.0 
1194 1 9 282 1.0 1.0 
1195 1 9 364 1.0 1.0 
1196 1 9 91 1.0 1.0 
1197 1 9 111 1.0 1.0 
1198 1 9 106 1.0 1.0 
1199 1 9 489 1.0 1.0 
1200 1 9 195 1.0 1.0 
1201 1 9 406 1.0 1.0 
1202 1 9 197 1.0 1.0 
1203 1 9 196 1.0 1.0 
1204 1 9 311 1.0 1.0 
1205 1 9 93 1.0 1.0 
1206 1 9 308 1.0 1.0 
1207 1 9 444 1.0 1.0 
1208 1 9 286 1.0 1.0 
1209 1 9 97 1.0 1.0 
1210 1 9 98 1.0 1.0 
1211 1 9 100 1.0 1.0 
1212 1 9 99 1.0 1.0 
1213 1 9 299 1.0 1.0 
1214 1 9 473 1.0 1.0 
1215 1 9 356 1.0 1.0 
1216 1 9 372 1.0 1.0 
1217 1 9 92 1.0 1.0 
1218 1 9 290 1.0 1.0 
1219 1 9 291 1.0 1.0 
1220 1 9 74 1.0 1.0 
1221 1 9 315 1.0 1.0 
1222 1 9 213 1.0 1.0 
1223 1 9 294 1.0 1.0 
1224 1 9 148 1.0 1.0 
1225 1 9 500 1.0 1.0 
1226 1 9 387 1.0 1.0 
1227 1 9 45 1.0 1.0 
1228 1 9 9 1.0 1.0 
1229 1 9 278 1.0 1.0 
1230 1 9 147 1.0 1.0 
1231 1 9 302 1.0 1.0 
1232 1 9 235 1.0 1.0 
1233 1 9 73 1.0 1.0 
1234 1 9 270 1.0 1.0 
1235 1 9 248 1.0 1.0 
1236 1 9 188 1.0 1.0 
1237 1 9 66 1.0 1.0 
1238 1 9 210 1.0 1.0 
1239 1 9 3 1.0 1.0 
1240 1 9 321 1.0 1.0 
1241 1 9 307 1.0 1.0 
1242 1 9 168 1.0 1.0 
1243 1 9 169 1.0 1.0 
1244 1 9 180 1.0 1.0 
1245 1 9 170 1.0 1.0 
1246 1 9 171 1.0 1.0 
1247 1 9 172 1.0 1.0 
1248 1 9 173 1.0 1.0 
1249 1 9 114 1.0 1.0 
1250 1 9 136 1.0 1.0 
1251 1 9 186 1.0 1.0 
1252 1 9 187 1.0 1.0 
1253 1 9 185 1.0 1.0 
1254 1 9 174 1.0 1.0 
1255 1 9 181 1.0 1.0 
1256 1 9 140 1.0 1.0 
1257 1 9 155 1.0 1.0 
1258 1 9 127 1.0 1.0 
1259 1 9 329 1.0 1.0 
1260 1 9 414 1.0 1.0 
1261 1 9 145 1.0 1.0 
1262 1 9 138 1.0 1.0 
1263 1 9 132 1.0 1.0 
1264 1 9 141 1.0 1.0 
1265 1 9 139 1.0 1.0 
1266 1 9 221 1.0 1.0 
1267 1 9 242 1.0 1.0 
1268 1 9 328 1.0 1.0 
1269 1 9 267 1.0 1.0 
1270 1 9 232 1.0 1.0 
1271 1 9 265 1.0 1.0 
1272 1 9 14 1.0 1.0 
1273 1 9 4 1.0 1.0 
1274 1 9 70 1.0 1.0 
1275 1 9 212 1.0 1.0 
1276 1 9 262 1.0 1.0 
1277 1 9 27 1.0 1.0 
1278 1 9 229 1.0 1.0 
1279 1 9 40 1.0 1.0 
1280 1 9 32 1.0 1.0 
1281 1 9 63 1.0 1.0 
1282 1 9 245 1.0 1.0 
1283 1 9 250 1.0 1.0 
1284 1 9 254 1.0 1.0 
1285 1 9 152 1.0 1.0 
1286 1 9 241 1.0 1.0 
1287 1 9 53 1.0 1.0 
1288 1 9 10 1.0 1.0 
1289 1 9 529 1.0 1.0 
1290 1 9 46 1.0 1.0 
1291 1 9 244 1.0 1.0 
1292 1 9 236 1.0 1.0 
1293 1 9 231 1.0 1.0 
1294 1 9 238 1.0 1.0 
1295 1 9 214 1.0 1.0 
1296 1 9 31 1.0 1.0 
1297 1 9 56 1.0 1.0 
1298 1 9 54 1.0 1.0 
1299 1 9 215 1.0 1.0 
1300 1 9 233 1.0 1.0 
1301 1 9 220 1.0 1.0 
1302 1 9 219 1.0 1.0 
1303 1 9 392 1.0 1.0 
1304 1 9 239 1.0 1.0 
1305 1 9 228 1.0 1.0 
1306 1 9 55 1.0 1.0 
1307 1 9 478 1.0 1.0 
1308 1 9 207 1.0 1.0 
1309 1 9 428 1.0 1.0 
1310 1 9 438 1.0 1.0 
1311 1 9 211 1.0 1.0 
1312 1 9 154 1.0 1.0 
1313 1 9 205 1.0 1.0 
1314 1 9 488 1.0 1.0 
1315 1 9 532 1.0 1.0 
1316 1 9 123 1.0 1.0 
1317 1 9 432 1.0 1.0 
1318 1 9 449 1.0 1.0 
1319 1 9 143 1.0 1.0 
1320 1 9 536 1.0 1.0 
1321 1 9 398 1.0 1.0 
1322 1 9 146 1.0 1.0 
1323 1 9 128 1.0 1.0 
1324 1 9 494 1.0 1.0 
1325 1 9 495 1.0 1.0 
1326 1 9 520 1.0 1.0 
1327 1 9 129 1.0 1.0 
1328 1 9 176 1.0 1.0 
1329 1 9 134 1.0 1.0 
1330 1 9 427 1.0 1.0 
1331 1 9 280 1.0 1.0 
1332 1 9 502 1.0 1.0 
1333 1 9 157 1.0 1.0 
1334 1 9 2 1.0 1.0 
1335 1 9 112 1.0 1.0 
1336 1 9 452 1.0 1.0 
1337 1 9 76 1.0 1.0 
1338 1 9 521 1.0 1.0 
1339 1 9 131 1.0 1.0 
1340 1 9 135 1.0 1.0 
1341 1 9 117 1.0 1.0 
1342 1 9 28 1.0 1.0 
1343 1 9 434 1.0 1.0 
1344 1 9 153 1.0 1.0 
1345 1 9 382 1.0 1.0 
1346 1 9 34 1.0 1.0 
1347 1 9 445 1.0 1.0 
1348 1 9 490 1.0 1.0 
1349 1 9 410 1.0 1.0 
1350 1 9 457 1.0 1.0 
1351 1 9 175 1.0 1.0 
1352 1 9 412 1.0 1.0 
1353 1 9 326 1.0 1.0 
1354 1 9 426 1.0 1.0 
1355 1 9 446 1.0 1.0 
1356 1 9 487 1.0 1.0 
1357 1 9 527 1.0 1.0 
1358 1 9 404 1.0 1.0 
1359 1 9 439 1.0 1.0 
1360 1 9 437 1.0 1.0 
1361 1 9 113 1.0 1.0 
1362 1 9 496 1.0 1.0 
1363 1 9 347 1.0 1.0 
1364 1 9 396 1.0 1.0 
1365 1 9 435 1.0 1.0 
1366 1 9 451 1.0 1.0 
1367 1 9 519 1.0 1.0 
1368 1 9 485 1.0 1.0 
1369 1 9 411 1.0 1.0 
1370 1 9 130 1.0 1.0 
1371 1 9 377 1.0 1.0 
1372 1 9 101 1.0 1.0 
1373 1 9 422 1.0 1.0 
1374 1 9 507 1.0 1.0 
1375 1 9 421 1.0 1.0 
1376 1 9 137 1.0 1.0 
1377 1 9 189 1.0 1.0 
1378 1 9 524 1.0 1.0 
1379 1 9 124 1.0 1.0 
1380 1 9 442 1.0 1.0 
1381 1 9 325 1.0 1.0 
1382 1 9 0 1.0 1.0 
1383 1 9 513 1.0 1.0 
1384 1 9 330 1.0 1.0 
1385 1 9 142 1.0 1.0 
1386 1 9 459 1.0 1.0 
1387 1 9 393 1.0 1.0 
1388 1 9 144 1.0 1.0 
1389 1 9 525 1.0 1.0 
1390 1 9 79 1.0 1.0 
1391 1 9 126 1.0 1.0 
1392 1 9 81 1.0 1.0 
1393 1 9 394 1.0 1.0 
1394 1 9 448 1.0 1.0 
1395 1 9 80 1.0 1.0 
1396 1 9 458 1.0 1.0 
1397 1 9 319 1.0 1.0 
1398 1 9 11 1.0 1.0 
1399 1 10 167 1.0 1.0 
1400 1 10 302 1.0 1.0 
1401 1 10 155 1.0 1.0 
1402 1 10 295 1.0 1.0 
1403 1 10 242 1.0 1.0 
1404 1 10 273 1.0 1.0 
1405 1 10 46 1.0 1.0 
1406 1 10 290 1.0 1.0 
1407 1 10 57 1.0 1.0 
1408 1 10 118 1.0 1.0 
1409 1 10 170 1.0 1.0 
1410 1 10 173 1.0 1.0 
1411 1 10 187 1.0 1.0 
1412 1 10 181 1.0 1.0 
1413 1 10 164 1.0 1.0 
1414 1 10 180 1.0 1.0 
1415 1 10 179 1.0 1.0 
1416 1 10 169 1.0 1.0 
1417 1 10 255 1.0 1.0 
1418 1 10 168 1.0 1.0 
1419 1 10 33 1.0 1.0 
1420 1 10 231 1.0 1.0 
1421 1 10 256 1.0 1.0 