ITEM: TIMESTEP
1
ITEM: NUMBER OF ATOMS
542
ITEM: ATOMS id x y z type v1 v2 v3 v4 v5
0 0.0458 -0.0415 0.0 5.0 1.0 -0.574 0.4584 0.0018 0.5475 
1 -0.1077 0.1381 0.0 41.0 1.0 0.4669 0.366 0.0004 0.5666 
2 -0.0186 0.0226 0.0 25.0 0.0 0.7109 0.4122 0.0001 0.6039 
3 -0.0224 -0.0552 0.0 5.0 0.0 -1.1523 1.0444 0.0059 0.6249 
4 0.0298 -0.0415 0.0 51.0 0.0 -1.6697 0.4011 0.0009 0.5672 
5 -0.0153 0.0438 0.0 34.0 0.0 -0.6123 0.6895 0.0043 0.575 
6 0.0004 -0.0013 0.0 25.0 0.0 0.0672 0.3253 0.0005 0.5427 
7 0.0753 -0.0423 0.0 40.0 0.0 -0.4798 0.39 0.0005 0.5387 
8 -0.0313 -0.0386 0.0 24.0 0.0 1.6231 0.6118 0.0009 0.5166 
9 0.0009 0.0043 0.0 21.0 0.0 -0.1453 0.6969 0.0038 0.5375 
10 -0.0188 -0.0917 0.0 53.0 0.0 -0.0153 0.5416 0.0009 0.5584 
11 0.0239 0.0507 0.0 5.0 0.0 0.0 0.8743 0.0058 0.6816 
12 -0.0336 -0.0029 0.0 34.0 0.0 -0.0053 0.2921 0.0 0.5596 
13 -0.0044 0.1079 0.0 34.0 0.0 -0.2474 0.3937 0.0006 0.5487 
14 -0.0021 0.023 0.0 34.0 0.0 0.0304 0.2736 0.0002 0.5463 
15 0.025 0.0072 0.0 37.0 0.0 1.0334 0.305 0.0001 0.5541 
16 0.0277 -0.0483 0.0 37.0 0.0 1.0212 0.4362 0.0005 0.5487 
17 0.0232 0.0823 0.0 5.0 0.0 0.744 0.5823 0.0028 0.5609 
18 -0.0002 0.0547 0.0 36.0 0.0 1.1443 0.2828 0.0005 0.528 
19 -0.0186 0.0053 0.0 5.0 0.0 1.1261 0.6987 0.0022 0.5711 
20 -0.026 0.0093 0.0 4.0 0.0 1.6328 0.6802 0.0017 0.5737 
21 0.105 -0.1039 0.0 14.0 0.0 0.5468 0.2107 0.0001 0.5161 
22 -0.0335 -0.0455 0.0 33.0 0.0 1.3024 0.6322 0.0011 0.5691 
23 0.0229 -0.0237 0.0 34.0 0.0 3.647 0.3216 0.0001 0.5685 
24 0.0119 -0.0002 0.0 10.0 0.0 0.7452 0.4196 0.0005 0.5541 
25 0.0348 -0.0715 0.0 5.0 0.0 0.0946 0.7024 0.0016 0.5809 
26 0.0395 -0.0865 0.0 5.0 0.0 0.1789 0.5786 0.0007 0.5698 
27 0.0358 -0.0787 0.0 52.0 0.0 -0.8618 0.6673 0.0016 0.5912 
28 0.0845 -0.0373 0.0 16.0 0.0 0.484 0.4935 0.0009 0.6025 
29 0.0535 0.1483 0.0 19.0 0.0 -0.4552 0.2865 0.0001 0.5463 
30 -0.7857 0.6936 0.0 34.0 0.0 0.2016 0.2569 0.0 0.5514 
31 -0.0347 -0.0464 0.0 5.0 0.0 -0.1318 0.6007 0.001 0.5609 
32 0.0338 -0.0451 0.0 49.0 0.0 -0.1292 0.5693 0.0009 0.5919 
33 0.0303 -0.0176 0.0 5.0 0.0 0.123 0.8447 0.0027 0.5857 
34 0.0052 0.0047 0.0 9.0 0.0 0.3894 0.4104 0.0004 0.5816 
35 -0.0064 -0.1072 0.0 5.0 0.0 -0.8381 0.4233 0.0003 0.5666 
36 0.0149 0.0677 0.0 5.0 0.0 -0.3906 0.658 0.0014 0.5553 
37 -0.0064 -0.0922 0.0 5.0 0.0 0.3537 0.4399 0.0005 0.5505 
38 0.0203 -0.0163 0.0 26.0 0.0 -0.0184 0.9797 0.0033 0.5776 
39 -0.0087 0.0066 0.0 5.0 0.0 -0.6881 0.7634 0.0032 0.575 
40 0.0145 0.027 0.0 5.0 0.0 -0.1818 0.7246 0.0039 0.615 
41 0.0331 -0.0026 0.0 37.0 0.0 -0.1115 0.7135 0.0037 0.5863 
42 -0.0528 -0.0308 0.0 37.0 0.0 0.0225 0.5823 0.0016 0.5678 
43 -0.052 -0.0267 0.0 10.0 0.0 0.0205 0.3549 0.0001 0.5803 
44 -0.0178 0.028 0.0 47.0 0.0 0.0274 0.5323 0.0016 0.5628 
45 -0.0269 -0.0389 0.0 44.0 1.0 0.761 0.488 0.0013 0.5615 
46 -0.0513 0.0391 0.0 11.0 0.0 -0.739 0.6285 0.0019 0.5898 
47 0.0776 0.0416 0.0 38.0 1.0 2.8189 0.22 0.0 0.5381 
48 0.7114 0.3363 0.0 23.0 1.0 4.5841 0.1423 0.0 0.5133 
49 0.0314 0.0389 0.0 37.0 0.0 -0.6354 0.6747 0.0027 0.5685 
50 -0.0154 -0.008 0.0 16.0 0.0 -0.1611 0.3253 0.0002 0.5691 
51 -0.0073 0.0279 0.0 16.0 0.0 0.7831 1.0092 0.0038 0.5863 
52 0.0025 0.0534 0.0 5.0 0.0 0.0176 0.5305 0.0012 0.5541 
53 0.0042 -0.0032 0.0 5.0 0.0 -0.0952 0.4122 0.0005 0.5621 
54 -0.0011 -0.0249 0.0 11.0 0.0 0.4887 0.3105 0.0001 0.5615 
55 0.0132 0.0609 0.0 4.0 0.0 -0.2441 0.5693 0.0018 0.5553 
56 0.0419 0.0728 0.0 47.0 0.0 1.7783 0.3272 0.0 0.575 
57 -0.0008 0.073 0.0 5.0 0.0 -0.0744 0.6377 0.0017 0.5659 
58 0.071 0.0601 0.0 49.0 0.0 0.6162 0.4233 0.0005 0.5375 
59 0.0107 0.0447 0.0 29.0 0.0 1.5835 0.4935 0.0018 0.5057 
60 -0.5804 -0.7054 0.0 24.0 0.0 0.1933 0.1497 0.0 0.5149 
61 -0.0117 0.018 0.0 43.0 0.0 -0.5122 0.3752 0.0004 0.4923 
62 0.0438 -0.0194 0.0 55.0 1.0 0.4206 0.4177 0.0015 0.5032 
63 -0.011 -0.0283 0.0 51.0 0.0 -0.2054 0.6155 0.0007 0.515 
64 -0.0148 0.0435 0.0 35.0 0.0 -0.1357 0.5102 0.0008 0.5113 
65 0.0088 0.0019 0.0 0.0 1.0 3.1734 0.5471 0.0009 0.5171 
66 0.0313 0.001 0.0 13.0 0.0 -0.9574 0.6543 0.0028 0.5387 
67 0.0435 0.0516 0.0 31.0 1.0 0.9595 0.5508 0.0005 0.4972 
68 0.0367 0.1018 0.0 18.0 1.0 0.5989 0.1423 0.0001 0.4843 
69 -0.0164 -0.0246 0.0 16.0 0.0 -0.2786 0.6063 0.0011 0.5505 
70 0.0355 -0.0869 0.0 37.0 0.0 0.0 0.5231 0.0018 0.5769 
71 -0.0029 -0.042 0.0 38.0 0.0 0.2791 0.5915 0.0011 0.528 
72 0.039 0.0426 0.0 43.0 0.0 -0.2124 0.427 0.0015 0.5155 
73 0.0139 -0.035 0.0 7.0 0.0 -0.195 0.2089 0.0 0.5296 
74 0.0096 -0.0102 0.0 6.0 0.0 0.4797 0.6211 0.0007 0.515 
75 0.1079 -0.0577 0.0 47.0 1.0 0.0 0.2976 0.0 0.564 
76 -0.0409 0.0129 0.0 4.0 0.0 0.6336 0.6377 0.0013 0.5553 
77 0.0153 -0.0175 0.0 34.0 0.0 0.4632 0.7079 0.0024 0.5139 
78 0.0515 -0.0206 0.0 35.0 0.0 -0.657 0.3031 0.0004 0.5027 
79 -0.0142 -0.0121 0.0 47.0 1.0 -0.81 0.6414 0.0019 0.5796 
80 0.0312 0.0653 0.0 20.0 1.0 -1.4014 0.6895 0.0025 0.621 
81 0.005 -0.0084 0.0 47.0 1.0 -0.9462 0.6821 0.003 0.5547 
82 -0.0078 -0.0036 0.0 6.0 1.0 -0.9517 0.7542 0.0022 0.5756 
83 0.0429 0.0804 0.0 26.0 1.0 -0.2903 0.2884 0.0005 0.5082 
84 -0.06 -0.0001 0.0 46.0 1.0 -0.3013 0.6137 0.0024 0.5621 
85 0.2019 0.8282 0.0 1.0 1.0 -1.3579 0.281 0.0 0.5618 
86 0.027 0.0854 0.0 38.0 1.0 -0.9359 0.5268 0.001 0.533 
87 -0.0057 0.0268 0.0 4.0 1.0 0.2978 0.6969 0.0017 0.5621 
88 -0.0041 -0.0485 0.0 11.0 1.0 -0.6563 0.8725 0.0044 0.5996 
89 0.0244 -0.0562 0.0 30.0 1.0 -0.1531 0.7449 0.004 0.5975 
90 -0.0887 0.0035 0.0 4.0 1.0 -1.0587 0.5416 0.0013 0.5996 
91 -0.0357 0.0265 0.0 38.0 1.0 -1.4789 0.4732 0.0009 0.5989 
92 -0.0808 0.043 0.0 19.0 1.0 -0.1828 0.2976 0.0 0.5678 
93 -0.0124 0.0239 0.0 24.0 1.0 -0.2912 0.329 0.0002 0.5685 
94 -0.0302 0.0585 0.0 47.0 1.0 -0.239 0.4713 0.0007 0.5659 
95 -0.0374 0.1236 0.0 47.0 1.0 1.7547 0.3235 0.0003 0.5541 
96 0.0071 0.023 0.0 47.0 1.0 -1.3477 0.5194 0.0014 0.5584 
97 0.0509 -0.0037 0.0 10.0 1.0 1.7422 0.3253 0.0001 0.5763 
98 0.0018 -0.0012 0.0 19.0 1.0 -0.2888 0.5675 0.0022 0.5547 
99 0.0584 -0.0799 0.0 48.0 1.0 -0.3408 0.5083 0.0018 0.5427 
100 -0.0791 0.0538 0.0 47.0 1.0 -0.5397 0.4344 0.0011 0.5711 
101 -0.0022 -0.0033 0.0 46.0 1.0 -0.2724 0.3993 0.0006 0.5704 
102 0.0417 0.0763 0.0 1.0 1.0 -0.2914 0.4843 0.0007 0.5691 
103 -0.027 0.0009 0.0 46.0 1.0 -1.1486 0.7338 0.0034 0.5481 
104 -0.0308 0.0822 0.0 46.0 1.0 0.3274 0.2773 0.0004 0.5077 
105 0.0069 0.0552 0.0 46.0 1.0 0.2479 0.6821 0.0023 0.564 
106 0.0366 -0.0748 0.0 46.0 1.0 0.6554 0.6026 0.002 0.5523 
107 0.0262 0.0118 0.0 44.0 1.0 0.8412 0.6525 0.0017 0.5511 
108 -0.0042 0.0055 0.0 47.0 1.0 0.3553 0.5878 0.0015 0.5932 
109 -0.0589 0.0855 0.0 44.0 1.0 1.0432 0.4787 0.0014 0.573 
110 0.0222 0.0451 0.0 44.0 1.0 -0.8845 0.3124 0.0 0.5717 
111 -0.3336 0.8563 0.0 30.0 1.0 -0.2347 0.3179 0.0 0.5772 
112 0.19 0.1195 0.0 24.0 1.0 0.7064 0.3198 0.0001 0.5717 
113 -0.0098 0.0809 0.0 5.0 0.0 -0.0298 0.353 0.0002 0.5816 
114 -0.0036 -0.0574 0.0 52.0 0.0 0.1695 0.525 0.0008 0.5634 
115 0.038 0.0713 0.0 53.0 0.0 0.5064 0.3623 0.0007 0.515 
116 -0.0357 0.0068 0.0 52.0 0.0 0.0099 0.1719 0.0001 0.5155 
117 0.0606 0.0207 0.0 5.0 0.0 0.496 0.6636 0.0025 0.5541 
118 0.0249 -0.027 0.0 48.0 0.0 1.2792 0.2957 0.0004 0.489 
119 0.2569 0.8918 0.0 49.0 0.0 -0.3663 0.2292 0.0 0.5431 
120 -0.0364 0.0968 0.0 52.0 0.0 0.3523 0.3641 0.0003 0.5572 
121 0.0473 0.1254 0.0 52.0 0.0 -0.2126 0.3327 0.0002 0.5572 
122 0.0366 0.0396 0.0 52.0 0.0 -0.569 0.4677 0.001 0.5691 
123 0.0236 -0.0058 0.0 52.0 0.0 -1.0077 0.2514 0.0001 0.5347 
124 -0.0287 -0.0556 0.0 41.0 0.0 -0.5376 0.5933 0.0008 0.5919 
125 0.0273 0.0517 0.0 5.0 0.0 0.1604 0.9501 0.0048 0.5968 
126 -0.0309 0.0547 0.0 7.0 0.0 -0.8665 0.5619 0.0017 0.575 
127 -0.0229 0.0391 0.0 14.0 0.0 1.1304 0.6377 0.0016 0.5737 
128 0.0123 -0.0288 0.0 49.0 0.0 1.4162 0.586 0.0009 0.5877 
129 -0.0421 -0.0265 0.0 24.0 0.0 1.0008 0.6174 0.001 0.5925 
130 0.0071 -0.0371 0.0 49.0 0.0 -0.1235 0.475 0.0004 0.5829 
131 -0.4993 -0.7146 0.0 47.0 0.0 0.5848 0.3882 0.0 0.6005 
132 0.0098 0.003 0.0 5.0 0.0 -0.6477 0.5823 0.0013 0.5996 
133 -0.0246 -0.0381 0.0 16.0 0.0 -0.6451 0.8651 0.004 0.5932 
134 0.0105 0.0309 0.0 37.0 0.0 0.8991 1.0222 0.0056 0.6068 
135 0.0266 -0.0598 0.0 34.0 0.0 0.5249 0.7006 0.0014 0.5968 
136 0.0237 -0.0592 0.0 37.0 0.0 1.5009 0.3789 0.0003 0.5541 
137 -0.0193 -0.0369 0.0 47.0 0.0 -0.3836 0.61 0.002 0.6032 
138 -0.0258 -0.0388 0.0 11.0 0.0 0.2353 0.8872 0.0028 0.609 
139 0.0165 0.0174 0.0 37.0 0.0 -1.2585 1.0739 0.0085 0.6265 
140 -0.0155 0.0446 0.0 24.0 0.0 -1.0076 1.0462 0.0058 0.5905 
141 0.0596 -0.0999 0.0 21.0 0.0 -1.2485 0.5268 0.0009 0.6105 
142 0.0656 -0.0038 0.0 5.0 0.0 -0.6071 0.4935 0.0006 0.5836 
143 -0.0106 -0.027 0.0 49.0 0.0 2.3074 0.9723 0.0039 0.6218 
144 0.012 -0.0123 0.0 10.0 0.0 -0.6737 0.6765 0.0015 0.5816 
145 -0.0609 -0.0323 0.0 18.0 0.0 -0.2876 0.5397 0.0008 0.5905 
146 0.0085 0.0115 0.0 41.0 0.0 1.4416 0.3974 0.0004 0.5769 
147 -0.0088 0.0189 0.0 41.0 0.0 -0.5521 0.4251 0.0008 0.5499 
148 0.0258 -0.0502 0.0 4.0 0.0 2.4275 0.4935 0.0009 0.5891 
149 -0.0539 -0.0303 0.0 5.0 0.0 0.0891 0.671 0.0021 0.6142 
150 0.0158 0.0042 0.0 41.0 0.0 0.3595 0.2237 0.0002 0.5161 
151 0.0087 0.0345 0.0 21.0 0.0 -0.2935 0.3475 0.0003 0.5704 
152 0.0117 -0.0104 0.0 5.0 0.0 -0.6518 0.4288 0.0004 0.5711 
153 -0.0141 -0.0098 0.0 41.0 0.0 0.4486 0.756 0.0021 0.5829 
154 -0.0425 0.0268 0.0 21.0 0.0 -0.1304 0.4011 0.0002 0.5996 
155 -0.0026 -0.0406 0.0 34.0 0.0 0.8799 0.8078 0.003 0.5939 
156 -0.0102 -0.0304 0.0 34.0 0.0 -0.7864 0.7745 0.0022 0.5659 
157 0.0167 -0.049 0.0 41.0 1.0 0.7691 0.5804 0.0011 0.564 
158 -0.0233 0.0441 0.0 41.0 1.0 0.9597 0.8373 0.003 0.575 
159 0.0003 0.034 0.0 49.0 1.0 -0.2144 1.0665 0.0045 0.537 
160 -0.0045 0.0086 0.0 41.0 1.0 0.2122 0.3771 0.0006 0.559 
161 0.0015 0.0049 0.0 27.0 0.0 0.514 0.7079 0.0015 0.5098 
162 0.0185 0.0328 0.0 55.0 1.0 -1.1352 0.7542 0.0034 0.5939 
163 0.0299 0.0537 0.0 47.0 1.0 1.5027 0.7394 0.0027 0.5961 
164 0.0014 0.0051 0.0 6.0 0.0 1.2638 0.9926 0.0046 0.601 
165 -0.0012 -0.0643 0.0 41.0 0.0 0.0446 0.7264 0.0014 0.5529 
166 0.0247 0.0495 0.0 10.0 0.0 -0.1609 0.8946 0.0068 0.5891 
167 -0.0398 -0.0692 0.0 30.0 0.0 -0.5073 0.4436 0.0004 0.5646 
168 0.0474 0.0447 0.0 41.0 0.0 0.637 0.5046 0.0014 0.5843 
169 0.0447 0.0262 0.0 25.0 0.0 2.0273 0.7449 0.0026 0.5982 
170 0.0112 0.0274 0.0 47.0 0.0 0.5001 0.8928 0.0046 0.585 
171 -0.0205 -0.0559 0.0 24.0 0.0 0.0734 0.8392 0.0025 0.6025 
172 -0.0027 -0.0395 0.0 36.0 0.0 0.6708 0.7856 0.0016 0.5809 
173 -0.1029 0.0229 0.0 24.0 0.0 -0.322 0.3734 0.0002 0.5776 
174 0.0702 -0.0448 0.0 5.0 0.0 0.9224 0.39 0.0003 0.5553 
175 0.0775 -0.0409 0.0 4.0 0.0 0.2869 0.4344 0.0004 0.5621 
176 -0.0297 0.0054 0.0 14.0 0.0 0.9556 0.3235 0.0001 0.5691 
177 0.0399 -0.0489 0.0 13.0 0.0 0.2077 0.4048 0.0003 0.5398 
178 0.013 -0.024 0.0 5.0 0.0 -0.8331 0.342 0.0001 0.5666 
179 -0.0017 -0.0698 0.0 47.0 0.0 1.0492 0.549 0.001 0.5511 
180 0.0211 -0.0078 0.0 5.0 0.0 -0.0967 0.6081 0.0028 0.5912 
181 -0.0093 -0.0286 0.0 21.0 0.0 -0.1275 0.9039 0.0038 0.5932 
182 -0.0478 -0.0281 0.0 35.0 0.0 0.6063 0.5804 0.001 0.5547 
183 0.0589 -0.0825 0.0 16.0 0.0 -1.1325 0.4159 0.0003 0.5796 
184 0.006 0.0061 0.0 10.0 1.0 -0.1638 0.1848 0.0001 0.5119 
185 -0.0089 -0.0282 0.0 35.0 0.0 0.0568 0.8207 0.0018 0.5666 
186 -0.0614 -0.0937 0.0 16.0 0.0 -0.4639 0.4954 0.0004 0.6127 
187 0.0095 0.0292 0.0 47.0 0.0 -0.447 0.7486 0.003 0.5783 
188 -0.0236 -0.0767 0.0 25.0 0.0 -1.1703 0.7043 0.0019 0.5809 
189 0.0049 0.0144 0.0 7.0 0.0 -0.437 0.3956 0.0004 0.5711 
190 0.0354 0.0735 0.0 54.0 1.0 2.2382 0.61 0.0025 0.5057 
191 0.0413 0.0763 0.0 42.0 1.0 2.0737 0.3623 0.0005 0.5192 
192 -0.0015 -0.0043 0.0 30.0 1.0 0.9573 0.5804 0.0008 0.4987 
193 -0.0174 0.0149 0.0 2.0 1.0 1.5118 0.5231 0.0012 0.5057 
194 -0.0506 -0.0518 0.0 55.0 1.0 -0.444 0.0924 0.0 0.4909 
195 0.0219 0.0649 0.0 18.0 1.0 1.7861 0.5009 0.0005 0.4997 
196 0.0393 0.0251 0.0 24.0 1.0 -0.5872 0.7079 0.0016 0.5666 
197 -0.0217 -0.0016 0.0 26.0 1.0 0.3422 0.8503 0.002 0.5646 
198 -0.0767 -0.1419 0.0 11.0 1.0 0.6868 0.1257 0.0 0.4967 
199 0.0022 0.0723 0.0 11.0 1.0 -0.0418 0.4381 0.0006 0.5027 
200 -0.0377 0.0672 0.0 2.0 1.0 -0.2453 0.4436 0.0012 0.5285 
201 0.0234 0.0761 0.0 25.0 0.0 0.5032 0.2717 0.0003 0.5047 
202 0.081 -0.0367 0.0 3.0 1.0 1.164 0.2126 0.0001 0.4977 
203 0.0448 0.1402 0.0 54.0 0.0 1.128 0.1885 0.0001 0.5129 
204 -0.0132 -0.029 0.0 33.0 0.0 0.9378 0.4843 0.001 0.5171 
205 0.0539 -0.0222 0.0 40.0 0.0 -0.1782 0.6322 0.0011 0.5225 
206 -0.0485 -0.0306 0.0 22.0 0.0 0.4004 0.4547 0.0008 0.5209 
207 0.0001 0.0121 0.0 5.0 0.0 -0.061 0.3105 0.0003 0.5565 
208 0.0004 0.0003 0.0 9.0 0.0 0.0646 0.2348 0.0002 0.5072 
209 0.0309 0.0425 0.0 9.0 0.0 1.5732 0.3734 0.0006 0.5352 
210 -0.0005 -0.0111 0.0 23.0 0.0 0.6743 0.1904 0.0001 0.5017 
211 -0.0094 -0.0187 0.0 13.0 0.0 -0.1156 0.4122 0.0012 0.5352 
212 0.0394 -0.0112 0.0 36.0 0.0 0.3927 0.7357 0.0008 0.5007 
213 -0.0241 0.0469 0.0 6.0 0.0 0.217 0.6506 0.0027 0.5672 
214 0.0322 0.053 0.0 11.0 0.0 -0.3906 0.7301 0.0028 0.5609 
215 0.3066 -0.6738 0.0 8.0 0.0 -0.0655 0.2532 0.0 0.5526 
216 -0.038 0.0142 0.0 46.0 0.0 -0.2922 0.5527 0.0011 0.5541 
217 -0.0032 -0.04 0.0 6.0 0.0 0.1911 0.7227 0.0013 0.559 
218 -0.008 -0.0037 0.0 40.0 0.0 0.6672 0.6488 0.0014 0.5398 
219 0.0169 0.0339 0.0 40.0 0.0 0.8177 0.2902 0.0003 0.5451 
220 0.0358 -0.0832 0.0 23.0 0.0 0.4862 0.4935 0.0009 0.537 
221 0.0501 0.0296 0.0 38.0 0.0 1.2173 0.6987 0.0035 0.5723 
222 -0.0104 -0.0291 0.0 30.0 0.0 -0.4194 0.695 0.0013 0.5358 
223 -0.007 0.0535 0.0 25.0 0.0 2.5126 0.305 0.0 0.4372 
224 -0.0055 0.0079 0.0 16.0 0.0 0.0789 0.4399 0.001 0.5603 
225 -0.0348 -0.1115 0.0 28.0 0.0 -0.3122 0.4603 0.0007 0.5511 
226 0.0023 -0.0207 0.0 47.0 0.0 -0.13 0.3327 0.0002 0.5628 
227 -0.0097 0.0633 0.0 49.0 0.0 0.5237 0.4067 0.0005 0.5572 
228 0.0394 -0.0502 0.0 16.0 0.0 0.1778 0.414 0.0003 0.5457 
229 0.0792 -0.0633 0.0 37.0 0.0 -0.2843 0.4713 0.0007 0.5789 
230 -0.0079 -0.0978 0.0 41.0 0.0 0.1848 0.4455 0.001 0.5451 
231 0.0435 -0.0327 0.0 5.0 0.0 0.3256 0.4769 0.0004 0.5596 
232 -0.0832 0.0687 0.0 37.0 0.0 -0.2932 0.3179 0.0002 0.5358 
233 0.0067 0.0443 0.0 7.0 0.0 -0.6381 0.7819 0.0029 0.5547 
234 -0.0126 0.0078 0.0 17.0 0.0 -0.5195 0.2957 0.0001 0.5572 
235 0.0013 -0.0074 0.0 17.0 0.0 -0.5963 0.2773 0.0002 0.5307 
236 0.0184 -0.003 0.0 5.0 0.0 -0.2189 0.3235 0.0001 0.5628 
237 0.0219 0.0153 0.0 11.0 0.0 0.0611 0.2828 0.0001 0.5547 
238 0.013 -0.0678 0.0 47.0 0.0 0.4255 0.475 0.0008 0.5457 
239 0.0331 0.0634 0.0 21.0 0.0 -0.2066 0.4935 0.0038 0.5463 
240 0.0304 0.0006 0.0 37.0 0.0 -0.715 0.2884 0.0001 0.5547 
241 0.0595 -0.0577 0.0 10.0 0.0 -1.0254 0.2865 0.0001 0.559 
242 0.0517 -0.0564 0.0 5.0 0.0 0.2806 0.329 0.0 0.5723 
243 0.002 0.0117 0.0 40.0 0.0 0.552 0.3604 0.0004 0.5517 
244 -0.0068 0.0268 0.0 5.0 0.0 0.1109 0.9686 0.0027 0.5653 
245 0.0268 -0.0255 0.0 21.0 0.0 0.6132 0.2717 0.0002 0.5487 
246 -0.0632 -0.0055 0.0 37.0 0.0 -0.1861 0.3253 0.0 0.575 
247 -0.037 -0.0734 0.0 5.0 0.0 1.3085 0.4917 0.0008 0.5789 
248 0.064 0.0228 0.0 16.0 0.0 0.1977 0.6543 0.0018 0.5672 
249 0.0153 0.0229 0.0 22.0 0.0 0.3412 0.5194 0.0024 0.5481 
250 0.1311 -0.177 0.0 21.0 0.0 0.0071 0.2606 0.0001 0.5451 
251 -0.0006 0.0152 0.0 22.0 0.0 -0.6055 0.573 0.0009 0.5603 
252 0.7634 -0.0299 0.0 1.0 0.0 1.0421 0.2754 0.0 0.5593 
253 -0.0547 0.0244 0.0 30.0 0.0 0.0778 0.2976 0.0001 0.5393 
254 0.0236 -0.0595 0.0 21.0 0.0 -0.1464 0.3771 0.0003 0.5609 
255 0.0011 -0.0818 0.0 43.0 0.0 0.3404 0.6895 0.0017 0.5975 
256 -0.0496 -0.0138 0.0 5.0 0.0 -0.5268 0.6987 0.0012 0.5776 
257 -0.0345 0.0187 0.0 40.0 0.0 0.2248 0.3309 0.0001 0.5387 
258 -0.0168 -0.0009 0.0 16.0 0.0 0.1138 0.2477 0.0 0.5393 
259 -0.0126 -0.0255 0.0 22.0 0.0 -0.3607 0.7061 0.0013 0.5723 
260 -0.0879 -0.1244 0.0 26.0 0.0 -0.2505 0.1183 0.0001 0.4857 
261 -0.0419 -0.0018 0.0 16.0 0.0 0.6156 0.3198 0.0002 0.5335 
262 0.0934 -0.01 0.0 24.0 0.0 -0.1321 0.3715 0.0004 0.5603 
263 0.0434 -0.0379 0.0 52.0 0.0 1.498 0.5841 0.0017 0.5789 
264 -0.0851 0.0948 0.0 5.0 0.0 -0.317 0.4381 0.0012 0.564 
265 -0.0026 0.0186 0.0 47.0 0.0 0.0067 0.5508 0.0009 0.5691 
266 -0.0453 -0.0109 0.0 16.0 0.0 0.3277 0.6506 0.001 0.5481 
267 -0.068 0.0139 0.0 47.0 0.0 0.0561 0.2588 0.0 0.5529 
268 -0.001 0.0144 0.0 5.0 0.0 0.1531 1.0739 0.0033 0.5672 
269 0.011 -0.0085 0.0 16.0 0.0 0.0136 0.7468 0.0013 0.5615 
270 -0.0527 0.0119 0.0 38.0 0.0 0.0593 0.5305 0.0012 0.5672 
271 -0.0424 -0.0261 0.0 10.0 0.0 -0.0508 0.512 0.0007 0.5584 
272 0.0124 -0.0103 0.0 50.0 0.0 -0.2764 0.525 0.0005 0.5393 
273 0.0042 0.028 0.0 5.0 0.0 -0.3167 0.4436 0.0002 0.5335 
274 -0.0203 0.02 0.0 37.0 0.0 1.4139 0.329 0.0002 0.5691 
275 0.0169 -0.049 0.0 5.0 0.0 -0.6225 0.573 0.0016 0.5609 
276 0.018 -0.04 0.0 5.0 0.0 1.451 0.4621 0.0008 0.573 
277 0.0102 0.0034 0.0 16.0 0.0 0.2108 1.2606 0.0072 0.5763 
278 -0.0047 0.0661 0.0 10.0 0.0 0.05 0.8725 0.0038 0.559 
279 0.0206 0.0366 0.0 47.0 1.0 -0.0776 0.6506 0.001 0.5723 
280 -0.0008 -0.0512 0.0 13.0 0.0 0.8067 0.5712 0.0015 0.5499 
281 0.0118 0.0096 0.0 17.0 1.0 1.14 0.8799 0.003 0.5505 
282 -0.0548 -0.0804 0.0 30.0 1.0 -0.435 0.3771 0.0005 0.5559 
283 0.0525 0.1474 0.0 18.0 1.0 0.4249 0.2163 0.0001 0.523 
284 0.0453 0.0334 0.0 32.0 1.0 1.8288 0.3475 0.0001 0.5743 
285 0.0346 0.1952 0.0 28.0 1.0 -0.0726 0.2976 0.0002 0.5493 
286 0.009 0.0247 0.0 14.0 1.0 -1.059 0.5046 0.0007 0.5129 
287 0.0104 0.031 0.0 19.0 1.0 -0.122 0.7301 0.0009 0.4967 
288 -0.0518 0.0397 0.0 16.0 1.0 1.0241 0.5434 0.001 0.5596 
289 0.0369 -0.075 0.0 20.0 1.0 0.1545 0.3826 0.0006 0.5584 
290 -0.0018 0.0787 0.0 5.0 1.0 0.2147 0.6081 0.0022 0.5743 
291 -0.039 0.0967 0.0 6.0 1.0 0.6469 0.2976 0.0003 0.5398 
292 0.0354 -0.0197 0.0 5.0 1.0 -1.2645 0.5046 0.001 0.5375 
293 -0.0164 -0.0246 0.0 49.0 1.0 0.2231 0.6543 0.0022 0.5653 
294 0.0529 -0.0564 0.0 6.0 1.0 -0.3502 0.3253 0.0001 0.5743 
295 0.6771 -0.5022 0.0 38.0 1.0 0.4022 0.3457 0.0 0.5879 
296 -0.0574 0.0445 0.0 10.0 1.0 1.4926 0.6322 0.0024 0.5547 
297 0.0356 -0.014 0.0 24.0 1.0 0.5254 0.2569 0.0001 0.5445 
298 0.0093 -0.0237 0.0 4.0 1.0 1.8314 0.6118 0.0013 0.5252 
299 -0.0038 0.0061 0.0 37.0 1.0 1.8628 1.0573 0.0068 0.6351 
300 0.0216 0.0296 0.0 52.0 1.0 1.3756 0.6599 0.0027 0.5884 
301 0.07 -0.0418 0.0 38.0 1.0 1.1993 0.4233 0.0005 0.5653 
302 0.0053 0.0055 0.0 52.0 1.0 0.7597 0.3789 0.0004 0.5666 
303 -0.0267 -0.0157 0.0 16.0 1.0 1.3574 0.8336 0.0047 0.5996 
304 0.0399 0.0271 0.0 16.0 1.0 1.8595 0.6765 0.0017 0.5659 
305 0.0713 -0.0009 0.0 39.0 1.0 0.6112 0.4122 0.0007 0.5609 
306 0.0282 0.0333 0.0 20.0 1.0 1.8258 0.5952 0.0016 0.5124 
307 -0.0092 -0.0279 0.0 41.0 0.0 -0.411 0.8115 0.0019 0.5634 
308 0.0179 -0.0391 0.0 26.0 1.0 -0.2246 0.3863 0.0004 0.5493 
309 0.0294 0.0257 0.0 48.0 1.0 1.0094 0.4473 0.0011 0.537 
310 0.0201 0.0333 0.0 4.0 1.0 -0.3141 0.7357 0.0021 0.5857 
311 -0.0783 0.0358 0.0 24.0 1.0 0.7006 0.6174 0.0022 0.5816 
312 -0.0513 -0.0759 0.0 41.0 1.0 -0.6406 0.39 0.0005 0.5596 
313 -0.0091 -0.0276 0.0 37.0 1.0 3.348 0.6969 0.0016 0.5198 
314 -0.1183 0.0247 0.0 32.0 1.0 0.7405 0.2625 0.0001 0.5427 
315 -0.0102 0.0481 0.0 6.0 1.0 2.6559 0.6858 0.0016 0.5247 
316 -0.0018 -0.0226 0.0 14.0 1.0 0.874 0.7431 0.0032 0.515 
317 -0.0287 -0.0495 0.0 32.0 1.0 -0.803 0.329 0.0004 0.5182 
318 0.031 -0.0266 0.0 10.0 1.0 0.9696 0.2828 0.0001 0.5578 
319 0.0148 -0.0199 0.0 5.0 1.0 0.0 0.8336 0.0065 0.6567 
320 0.0777 -0.0404 0.0 47.0 1.0 0.0706 0.3678 0.0007 0.541 
321 -0.0182 -0.0265 0.0 36.0 0.0 -0.7221 0.6137 0.0012 0.5666 
322 -0.0138 -0.0294 0.0 49.0 0.0 -0.2706 0.7486 0.0017 0.564 
323 -0.0318 0.0562 0.0 24.0 1.0 0.1299 0.451 0.0005 0.541 
324 -0.0078 0.0855 0.0 24.0 0.0 -0.3144 0.2976 0.0 0.5628 
325 0.0742 -0.0106 0.0 47.0 0.0 -0.5564 0.5342 0.0007 0.5523 
326 -0.0407 -0.0325 0.0 46.0 0.0 0.2538 0.2458 0.0001 0.5422 
327 0.0492 -0.0737 0.0 37.0 0.0 -0.6432 0.6433 0.001 0.5529 
328 0.0259 0.0104 0.0 47.0 0.0 -0.3842 0.5915 0.0015 0.5335 
329 0.002 0.0298 0.0 33.0 0.0 0.6751 1.1701 0.0052 0.5925 
330 0.0139 0.0037 0.0 31.0 1.0 -0.5985 0.8688 0.0038 0.5836 
331 0.0259 -0.0662 0.0 46.0 1.0 0.0235 0.5564 0.0012 0.533 
332 -0.0691 -0.0254 0.0 30.0 1.0 -0.5338 0.6081 0.0017 0.5609 
333 0.0467 0.1067 0.0 20.0 1.0 -1.3601 0.3863 0.0004 0.5776 
334 -0.0512 -0.0217 0.0 28.0 1.0 -0.4817 0.5028 0.0011 0.5296 
335 -0.0558 0.0102 0.0 47.0 1.0 1.5687 0.4344 0.0007 0.5398 
336 -0.019 -0.0973 0.0 45.0 1.0 0.3508 0.2921 0.0003 0.5352 
337 0.0036 -0.0249 0.0 47.0 1.0 -0.3096 0.342 0.0007 0.5032 
338 -0.0066 0.0365 0.0 17.0 1.0 0.3297 0.2274 0.0001 0.5364 
339 -0.0305 0.0535 0.0 39.0 1.0 -0.649 0.7505 0.002 0.5469 
340 0.0071 0.0235 0.0 15.0 1.0 -1.0898 0.5046 0.0012 0.5427 
341 0.0366 0.0396 0.0 41.0 1.0 -0.7316 0.414 0.0007 0.5493 
342 -0.0647 0.0611 0.0 52.0 1.0 0.2722 0.6654 0.002 0.5737 
343 0.0296 -0.0102 0.0 44.0 1.0 -0.4112 0.3142 0.0002 0.5505 
344 0.0374 -0.0141 0.0 46.0 1.0 -0.055 0.9039 0.005 0.5796 
345 -0.0041 0.0434 0.0 41.0 1.0 0.282 0.7819 0.0025 0.5621 
346 -0.0118 -0.014 0.0 38.0 1.0 1.2996 0.9224 0.0038 0.5691 
347 0.0598 -0.0431 0.0 11.0 1.0 -0.0497 0.5841 0.0015 0.5823 
348 0.0044 -0.0048 0.0 46.0 1.0 -1.2808 0.3216 0.0002 0.5445 
349 -0.026 -0.0047 0.0 10.0 1.0 0.0367 0.8854 0.0043 0.5743 
350 0.0475 -0.0458 0.0 54.0 1.0 -0.2281 0.4307 0.0004 0.5433 
351 -0.0249 0.025 0.0 2.0 1.0 0.1292 0.4787 0.0009 0.5653 
352 0.0238 0.1027 0.0 1.0 1.0 -1.1936 0.1738 0.0001 0.4899 
353 -0.0501 -0.0862 0.0 1.0 1.0 -0.6565 0.3937 0.0006 0.5584 
354 0.0004 0.0949 0.0 10.0 1.0 1.0858 0.4492 0.0014 0.5511 
355 0.0383 -0.0297 0.0 47.0 1.0 1.1655 0.6691 0.0018 0.5653 
356 -0.0071 0.009 0.0 1.0 1.0 -0.222 0.3919 0.0006 0.5659 
357 0.0418 -0.0533 0.0 11.0 1.0 0.0772 0.451 0.0008 0.5603 
358 -0.0056 0.008 0.0 37.0 1.0 4.2523 0.4067 0.0004 0.5511 
359 0.0093 -0.009 0.0 30.0 1.0 0.3599 0.7227 0.0022 0.5416 
360 0.0172 0.0781 0.0 10.0 1.0 -0.3485 0.6007 0.0018 0.5769 
361 0.018 -0.0392 0.0 24.0 1.0 0.3636 0.342 0.0003 0.5296 
362 -0.0241 0.0465 0.0 11.0 1.0 -0.3606 0.6155 0.0012 0.5572 
363 -0.0118 0.0584 0.0 11.0 1.0 -0.2888 0.3956 0.0004 0.5352 
364 0.0768 -0.04 0.0 30.0 1.0 -0.5047 0.4418 0.0009 0.5691 
365 -0.006 -0.0117 0.0 11.0 1.0 -1.5376 0.488 0.0021 0.5578 
366 0.0335 0.0452 0.0 11.0 1.0 -0.4868 0.2902 0.0 0.5628 
367 -0.0338 -0.1024 0.0 11.0 1.0 0.2576 0.5231 0.0011 0.5659 
368 0.0707 -0.0222 0.0 10.0 1.0 0.9772 0.2699 0.0 0.5547 
369 0.0422 0.1675 0.0 10.0 1.0 0.0107 0.2606 0.0001 0.5457 
370 0.003 0.0038 0.0 5.0 1.0 0.276 0.8022 0.0039 0.5439 
371 0.0041 -0.0105 0.0 26.0 1.0 0.9418 1.098 0.0044 0.5776 
372 0.1629 -0.219 0.0 26.0 1.0 -0.4473 0.342 0.0001 0.5823 
373 -0.0102 0.0469 0.0 19.0 1.0 0.0104 0.5638 0.0012 0.5565 
374 0.0123 -0.0229 0.0 19.0 1.0 -0.7269 0.2791 0.0001 0.5469 
375 -0.0063 -0.0184 0.0 19.0 1.0 -0.3988 0.8004 0.003 0.5698 
376 -0.0376 -0.0287 0.0 38.0 1.0 -0.6466 0.6081 0.002 0.5704 
377 0.0046 0.0192 0.0 17.0 1.0 -0.1561 0.7135 0.0021 0.5685 
378 0.0441 -0.0014 0.0 25.0 1.0 0.0632 0.7837 0.0017 0.5358 
379 0.0109 -0.0544 0.0 25.0 1.0 1.054 0.6229 0.0017 0.5487 
380 -0.0355 -0.0789 0.0 38.0 1.0 -0.2546 0.6303 0.002 0.5737 
381 -0.0163 0.0044 0.0 39.0 1.0 1.4986 0.4954 0.0009 0.5621 
382 -0.0094 -0.0002 0.0 39.0 1.0 0.418 0.8004 0.0024 0.5769 
383 -0.0054 0.0662 0.0 15.0 1.0 0.2655 0.281 0.0004 0.4928 
384 0.0441 0.0148 0.0 15.0 1.0 0.8492 0.4898 0.001 0.4928 
385 0.0602 0.0136 0.0 26.0 1.0 0.0099 0.7616 0.0027 0.5698 
386 0.052 -0.0265 0.0 47.0 1.0 -0.3279 0.5471 0.0015 0.5463 
387 0.0439 -0.0576 0.0 31.0 1.0 1.4002 0.6599 0.0012 0.5358 
388 0.4473 -0.6208 0.0 4.0 0.0 0.3111 0.329 0.0 0.5785 
389 0.0436 0.0285 0.0 41.0 1.0 6.8393 0.6636 0.0021 0.573 
390 -0.0241 0.0177 0.0 49.0 1.0 0.1744 0.5157 0.0011 0.5691 
391 -0.0713 -0.1013 0.0 54.0 1.0 2.2904 0.3383 0.0005 0.5578 
392 -0.0038 -0.0333 0.0 37.0 0.0 0.1833 0.3549 0.0002 0.5685 
393 0.0988 -0.0158 0.0 44.0 0.0 -0.6506 0.4492 0.0003 0.5925 
394 -0.0078 0.0184 0.0 22.0 0.0 -1.0802 1.1294 0.0069 0.612 
395 -0.0458 -0.0687 0.0 44.0 0.0 1.7658 0.4621 0.0005 0.5723 
396 0.0064 -0.012 0.0 38.0 0.0 -0.0562 0.9335 0.0035 0.5634 
397 -0.0361 -0.011 0.0 1.0 0.0 1.1581 0.4011 0.0011 0.5176 
398 -0.0253 0.0808 0.0 37.0 1.0 1.7158 0.7449 0.002 0.5932 
399 0.0484 -0.0868 0.0 38.0 1.0 0.7895 0.3715 0.0005 0.5698 
400 0.0362 0.1023 0.0 48.0 1.0 -0.2333 0.3549 0.0005 0.5475 
401 0.0056 0.0284 0.0 47.0 1.0 -0.4832 0.1701 0.0001 0.5022 
402 0.0181 0.0263 0.0 38.0 1.0 1.6012 0.3272 0.0002 0.5634 
403 -0.0193 0.0444 0.0 16.0 1.0 -0.6904 0.5952 0.0011 0.5487 
404 -0.0183 -0.0233 0.0 38.0 1.0 0.095 0.7431 0.0042 0.5898 
405 0.0339 0.0336 0.0 25.0 1.0 -0.0076 0.6839 0.0032 0.575 
406 -0.0165 0.0039 0.0 54.0 1.0 -0.6997 0.4917 0.0011 0.5603 
407 -0.0838 0.0348 0.0 2.0 1.0 -0.8728 0.2384 0.0 0.5475 
408 0.0326 0.0374 0.0 18.0 1.0 0.3498 0.5933 0.0013 0.5469 
409 0.0106 -0.0301 0.0 24.0 0.0 0.5685 0.573 0.0008 0.5925 
410 -0.0076 0.0284 0.0 10.0 0.0 0.331 0.9889 0.0029 0.5796 
411 -0.0085 -0.0981 0.0 22.0 0.0 -0.1057 0.5786 0.0023 0.5891 
412 -0.0529 -0.0311 0.0 37.0 0.0 0.2811 0.4584 0.0007 0.5341 
413 0.0342 0.0296 0.0 37.0 0.0 1.0907 0.7431 0.0026 0.5584 
414 0.0472 0.0519 0.0 34.0 0.0 0.4325 0.6248 0.0018 0.5621 
415 0.0038 -0.1033 0.0 21.0 0.0 0.4707 0.5139 0.0016 0.5678 
416 -0.0443 -0.0729 0.0 39.0 0.0 0.9628 0.22 0.0001 0.4783 
417 0.0394 -0.0806 0.0 41.0 0.0 1.1987 0.5009 0.0007 0.5698 
418 0.0079 0.0711 0.0 10.0 0.0 1.4187 0.6636 0.0023 0.575 
419 -0.0005 -0.0367 0.0 20.0 0.0 -0.3452 0.7689 0.0018 0.5559 
420 -0.0783 0.061 0.0 53.0 1.0 0.7437 0.3919 0.0006 0.5653 
421 0.0371 -0.0532 0.0 49.0 0.0 -0.3775 0.5601 0.002 0.5789 
422 0.0205 -0.0565 0.0 49.0 1.0 -0.2985 0.5656 0.0012 0.5475 
423 0.0111 0.0251 0.0 41.0 1.0 0.0705 0.5878 0.0013 0.5559 
424 -0.0276 0.02 0.0 45.0 1.0 0.5831 0.0628 0.0 0.4738 
425 -0.1277 -0.776 0.0 45.0 1.0 0.4295 0.159 0.0 0.5191 
426 -0.0128 0.0128 0.0 5.0 0.0 0.2326 0.7948 0.0016 0.5628 
427 -0.0067 -0.1261 0.0 23.0 0.0 0.8304 0.4991 0.0004 0.6032 
428 0.0903 -0.1481 0.0 22.0 0.0 -0.075 0.2551 0.0001 0.5416 
429 -0.0098 0.0809 0.0 29.0 1.0 -0.572 0.0185 0.0 0.4279 
430 0.1024 0.947 0.0 29.0 1.0 1.3549 0.1275 0.0 0.5107 
431 -0.0192 -0.0572 0.0 26.0 1.0 -0.3163 0.6858 0.0026 0.5493 
432 0.005 0.0425 0.0 0.0 1.0 2.8809 0.6303 0.0015 0.5711 
433 0.0492 -0.0198 0.0 41.0 1.0 0.4803 0.4824 0.0009 0.5145 
434 -0.0606 -0.0056 0.0 7.0 0.0 0.4839 0.7116 0.0016 0.5475 
435 -0.0322 -0.101 0.0 5.0 0.0 -0.0736 0.573 0.0007 0.5769 
436 0.0127 0.0245 0.0 37.0 0.0 0.3115 0.6322 0.0021 0.5678 
437 0.0043 0.0285 0.0 7.0 0.0 0.0409 0.5305 0.0005 0.5659 
438 0.0118 0.0023 0.0 37.0 0.0 -0.1014 0.6913 0.0024 0.575 
439 0.0089 -0.0101 0.0 37.0 0.0 0.0619 0.7338 0.0014 0.5493 
440 0.0491 -0.0829 0.0 39.0 1.0 -0.0239 0.2495 0.0002 0.4987 
441 -0.0243 0.0065 0.0 39.0 1.0 0.4049 0.4067 0.0007 0.5198 
442 0.0407 -0.025 0.0 17.0 1.0 -0.5408 0.4677 0.0007 0.5743 
443 0.0019 0.0803 0.0 44.0 1.0 -0.2499 0.5749 0.0008 0.5685 
444 0.0071 -0.0371 0.0 53.0 1.0 -0.2856 0.3715 0.0006 0.5505 
445 0.039 0.0257 0.0 34.0 0.0 0.356 0.7172 0.0022 0.5666 
446 0.0354 0.058 0.0 38.0 0.0 0.2325 0.6007 0.0016 0.5672 
447 0.0136 0.0269 0.0 47.0 1.0 -0.6122 0.573 0.0011 0.5578 
448 0.0146 0.0645 0.0 47.0 1.0 -1.2743 0.8022 0.0035 0.5711 
449 -0.001 0.0142 0.0 53.0 0.0 2.8421 1.0499 0.0032 0.5553 
450 0.0493 -0.0214 0.0 51.0 0.0 1.3949 0.5046 0.0014 0.5517 
451 -0.0022 -0.038 0.0 5.0 0.0 -0.0948 0.7782 0.0016 0.5743 
452 -0.0019 0.0176 0.0 38.0 1.0 0.6806 0.3346 0.0001 0.5653 
453 0.0351 0.036 0.0 17.0 1.0 0.821 0.4769 0.0006 0.5653 
454 -0.0193 -0.0158 0.0 15.0 1.0 -0.281 0.2532 0.0001 0.5375 
455 -0.0709 -0.0083 0.0 10.0 1.0 0.7453 0.3808 0.001 0.5108 
456 0.042 0.0778 0.0 10.0 1.0 -0.4778 0.414 0.0005 0.5457 
457 -0.0313 -0.0581 0.0 2.0 1.0 0.3021 0.3882 0.0004 0.5559 
458 0.01 0.0015 0.0 1.0 1.0 -1.7625 1.1331 0.006 0.5646 
459 -0.0068 -0.0906 0.0 47.0 1.0 -0.6123 0.6192 0.0019 0.5961 
460 0.0722 -0.0117 0.0 30.0 1.0 0.9963 0.2884 0.0005 0.5176 
461 0.0891 -0.0595 0.0 36.0 1.0 0.1531 0.2754 0.0002 0.5347 
462 -0.028 -0.0431 0.0 19.0 1.0 0.0 0.3013 0.0005 0.5124 
463 -0.0514 0.1306 0.0 17.0 1.0 0.2431 0.3549 0.0002 0.5678 
464 -0.0228 0.0511 0.0 2.0 1.0 -0.7952 0.6174 0.0015 0.5823 
465 -0.0581 -0.0979 0.0 47.0 1.0 0.6537 0.3031 0.0001 0.5505 
466 -0.0568 0.0057 0.0 26.0 1.0 1.0793 0.3789 0.0006 0.5241 
467 0.0074 0.0374 0.0 10.0 1.0 0.2561 0.4917 0.0011 0.5723 
468 -0.0296 0.0579 0.0 10.0 1.0 0.6158 0.3567 0.0003 0.5225 
469 0.0058 0.036 0.0 5.0 0.0 -0.056 0.9168 0.0021 0.5559 
470 -0.1188 0.0239 0.0 20.0 1.0 -0.6631 0.2348 0.0001 0.5285 
471 -0.0362 0.0119 0.0 32.0 1.0 0.3082 0.5194 0.0012 0.5445 
472 -0.0587 0.0344 0.0 10.0 1.0 -0.4478 0.3974 0.001 0.5047 
473 -0.008 -0.0246 0.0 47.0 1.0 -0.1885 0.8928 0.0039 0.5809 
474 -0.0106 -0.0014 0.0 47.0 1.0 -0.5895 0.2994 0.0003 0.5387 
475 0.0246 -0.0091 0.0 47.0 1.0 -0.51 0.9464 0.0032 0.5578 
476 0.0767 -0.0393 0.0 38.0 1.0 0.5093 0.3124 0.0002 0.5296 
477 0.0027 0.0805 0.0 17.0 1.0 0.0612 0.5028 0.0008 0.5381 
478 -0.0017 0.0169 0.0 25.0 0.0 1.2098 0.9242 0.0045 0.5541 
479 0.0281 0.0172 0.0 48.0 1.0 -0.0591 0.0776 0.0 0.477 
480 -0.0586 0.0978 0.0 48.0 1.0 0.1424 0.3641 0.0013 0.5422 
481 0.0507 -0.013 0.0 30.0 1.0 -0.7165 0.4196 0.0004 0.5387 
482 -0.3915 -0.7508 0.0 30.0 1.0 -1.2425 0.1922 0.0 0.5333 
483 -0.0071 0.0689 0.0 10.0 1.0 1.203 0.5841 0.001 0.5352 
484 -0.0034 -0.0397 0.0 5.0 0.0 0.0378 0.7616 0.0014 0.5717 
485 -0.0339 -0.0536 0.0 53.0 1.0 -0.0966 0.3937 0.0004 0.5553 
486 -0.0397 0.0645 0.0 53.0 1.0 0.1669 0.4529 0.0027 0.5134 
487 0.0198 -0.0524 0.0 53.0 1.0 0.1342 0.586 0.0013 0.537 
488 -0.0144 0.0142 0.0 7.0 0.0 -0.741 0.647 0.0018 0.5511 
489 -0.6411 0.7081 0.0 30.0 1.0 0.0 0.1608 0.0 0.5218 
490 -0.0037 -0.0815 0.0 4.0 1.0 0.3398 0.4418 0.0008 0.5523 
491 0.0431 0.0126 0.0 28.0 1.0 -0.0256 0.4935 0.0003 0.4747 
492 0.0171 0.0143 0.0 20.0 1.0 0.2798 0.915 0.0022 0.4904 
493 0.0471 -0.0722 0.0 11.0 1.0 -1.0995 0.1386 0.0001 0.4729 
494 -0.008 -0.0246 0.0 22.0 0.0 1.1325 0.9131 0.0037 0.5863 
495 0.012 -0.0095 0.0 11.0 1.0 1.0234 0.6876 0.0022 0.5975 
496 -0.0025 -0.1072 0.0 36.0 0.0 -0.0468 0.4658 0.0004 0.5347 